    1C
    1UUSER                                                              
    1UDATE              03.april.2020                                   
    1UTIME              10:08:24                                        
    1UHOST                                                              
    1UPGM               CalculiX                                        
    1UVERSION           Version 2.16                             
    1UCOMPILETIME       Mo 25. Nov 18:56:47 CET 2019                    
    1UDIR                                                               
    1UDBN                                                               
    1UMAT    1NICKEL_ALLOY                                              
    2C                           783                                     1
 -1         1 1.10000E+00 1.00000E+00 6.73533E-17
 -1         2 1.52929E+00 9.70711E-01 9.36389E-17
 -1         3 1.94142E+00 6.00000E-01 1.18874E-16
 -1         4 3.45000E+00 7.00000E-01 2.11245E-16
 -1         5 3.45000E+00-1.00000E-01 2.11245E-16
 -1         6 3.50000E+00-1.00000E-01 2.14306E-16
 -1         7 3.50000E+00 3.00000E-01 2.14306E-16
 -1         8 3.50000E+00 7.00000E-01 2.14306E-16
 -1         9 3.50000E+00 1.10000E+00 2.14306E-16
 -1        10 3.45000E+00 1.10000E+00 2.11245E-16
 -1        11 3.35000E+00 4.00000E-01 2.05122E-16
 -1        14 4.50000E+00 3.00000E-01 2.75536E-16
 -1        15 4.50000E+00 7.00000E-01 2.75536E-16
 -1        16 1.00000E+00 1.00000E-01 6.12303E-17
 -1        18 1.10000E+00 0.00000E+00 6.73533E-17
 -1        20 1.00000E+00 9.00000E-01 6.12303E-17
 -1        21 1.45858E+00 0.00000E+00 8.93093E-17
 -1        22 1.52929E+00 2.92890E-02 9.36389E-17
 -1        24 1.45858E+00 1.00000E+00 8.93093E-17
 -1        25 1.87071E+00 3.70711E-01 1.14544E-16
 -1        27 1.94142E+00 4.00000E-01 1.18874E-16
 -1        28 1.87071E+00 6.29289E-01 1.14544E-16
 -1        30 3.45000E+00 3.00000E-01 2.11245E-16
 -1        32 3.35000E+00 6.00000E-01 2.05122E-16
 -1        33 1.18965E+00 0.00000E+00 7.28423E-17
 -1        34 1.27929E+00 0.00000E+00 7.83313E-17
 -1        35 1.36893E+00 0.00000E+00 8.38203E-17
 -1        36 1.14482E+00 0.00000E+00 7.00978E-17
 -1        37 1.23447E+00 0.00000E+00 7.55868E-17
 -1        38 1.32411E+00 0.00000E+00 8.10758E-17
 -1        39 1.41376E+00 0.00000E+00 8.65648E-17
 -1        40 1.61464E+00 1.14644E-01 9.88652E-17
 -1        41 1.70000E+00 2.00000E-01 1.04092E-16
 -1        42 1.78535E+00 2.85355E-01 1.09318E-16
 -1        43 1.57197E+00 7.19670E-02 9.62520E-17
 -1        44 1.65732E+00 1.57322E-01 1.01478E-16
 -1        45 1.74268E+00 2.42678E-01 1.06705E-16
 -1        46 1.82803E+00 3.28033E-01 1.11931E-16
 -1        47 2.11749E+00 4.00000E-01 1.29655E-16
 -1        48 2.29357E+00 4.00000E-01 1.40436E-16
 -1        49 2.46964E+00 4.00000E-01 1.51217E-16
 -1        50 2.64571E+00 4.00000E-01 1.61998E-16
 -1        51 2.82178E+00 4.00000E-01 1.72779E-16
 -1        52 2.99785E+00 4.00000E-01 1.83560E-16
 -1        53 3.17393E+00 4.00000E-01 1.94341E-16
 -1        54 2.02946E+00 4.00000E-01 1.24264E-16
 -1        55 2.20553E+00 4.00000E-01 1.35045E-16
 -1        56 2.38160E+00 4.00000E-01 1.45826E-16
 -1        57 2.55767E+00 4.00000E-01 1.56607E-16
 -1        58 2.73375E+00 4.00000E-01 1.67388E-16
 -1        59 2.90982E+00 4.00000E-01 1.78169E-16
 -1        60 3.08589E+00 4.00000E-01 1.88950E-16
 -1        61 3.26196E+00 4.00000E-01 1.99731E-16
 -1        62 3.45000E+00 2.00000E-01 2.11245E-16
 -1        63 3.45000E+00 1.00000E-01 2.11245E-16
 -1        64 3.45000E+00 0.00000E+00 2.11245E-16
 -1        65 3.45000E+00 2.50000E-01 2.11245E-16
 -1        66 3.45000E+00 1.50000E-01 2.11245E-16
 -1        67 3.45000E+00 5.00000E-02 2.11245E-16
 -1        68 3.45000E+00-5.00000E-02 2.11245E-16
 -1        69 3.46250E+00-1.00000E-01 2.12010E-16
 -1        70 3.47500E+00-1.00000E-01 2.12775E-16
 -1        71 3.48750E+00-1.00000E-01 2.13541E-16
 -1        72 3.45625E+00-1.00000E-01 2.11627E-16
 -1        73 3.46875E+00-1.00000E-01 2.12393E-16
 -1        74 3.48125E+00-1.00000E-01 2.13158E-16
 -1        75 3.49375E+00-1.00000E-01 2.13923E-16
 -1        76 3.50000E+00 0.00000E+00 2.14306E-16
 -1        77 3.50000E+00 1.00000E-01 2.14306E-16
 -1        78 3.50000E+00 2.00000E-01 2.14306E-16
 -1        79 3.50000E+00-5.00000E-02 2.14306E-16
 -1        80 3.50000E+00 5.00000E-02 2.14306E-16
 -1        81 3.50000E+00 1.50000E-01 2.14306E-16
 -1        82 3.50000E+00 2.50000E-01 2.14306E-16
 -1        83 3.50000E+00 4.00000E-01 2.14306E-16
 -1        84 3.50000E+00 5.00000E-01 2.14306E-16
 -1        85 3.50000E+00 6.00000E-01 2.14306E-16
 -1        86 3.50000E+00 3.50000E-01 2.14306E-16
 -1        87 3.50000E+00 4.50000E-01 2.14306E-16
 -1        88 3.50000E+00 5.50000E-01 2.14306E-16
 -1        89 3.50000E+00 6.50000E-01 2.14306E-16
 -1        90 3.50000E+00 8.00000E-01 2.14306E-16
 -1        91 3.50000E+00 9.00000E-01 2.14306E-16
 -1        92 3.50000E+00 1.00000E+00 2.14306E-16
 -1        93 3.50000E+00 7.50000E-01 2.14306E-16
 -1        94 3.50000E+00 8.50000E-01 2.14306E-16
 -1        95 3.50000E+00 9.50000E-01 2.14306E-16
 -1        96 3.50000E+00 1.05000E+00 2.14306E-16
 -1        97 3.48750E+00 1.10000E+00 2.13541E-16
 -1        98 3.47500E+00 1.10000E+00 2.12775E-16
 -1        99 3.46250E+00 1.10000E+00 2.12010E-16
 -1       100 3.49375E+00 1.10000E+00 2.13923E-16
 -1       101 3.48125E+00 1.10000E+00 2.13158E-16
 -1       102 3.46875E+00 1.10000E+00 2.12393E-16
 -1       103 3.45625E+00 1.10000E+00 2.11627E-16
 -1       104 3.45000E+00 1.00000E+00 2.11245E-16
 -1       105 3.45000E+00 9.00000E-01 2.11245E-16
 -1       106 3.45000E+00 8.00000E-01 2.11245E-16
 -1       107 3.45000E+00 1.05000E+00 2.11245E-16
 -1       108 3.45000E+00 9.50000E-01 2.11245E-16
 -1       109 3.45000E+00 8.50000E-01 2.11245E-16
 -1       110 3.45000E+00 7.50000E-01 2.11245E-16
 -1       111 3.17393E+00 6.00000E-01 1.94341E-16
 -1       112 2.99785E+00 6.00000E-01 1.83560E-16
 -1       113 2.82178E+00 6.00000E-01 1.72779E-16
 -1       114 2.64571E+00 6.00000E-01 1.61998E-16
 -1       115 2.46964E+00 6.00000E-01 1.51217E-16
 -1       116 2.29357E+00 6.00000E-01 1.40436E-16
 -1       117 2.11749E+00 6.00000E-01 1.29655E-16
 -1       118 3.26196E+00 6.00000E-01 1.99731E-16
 -1       119 3.08589E+00 6.00000E-01 1.88950E-16
 -1       120 2.90982E+00 6.00000E-01 1.78169E-16
 -1       121 2.73375E+00 6.00000E-01 1.67388E-16
 -1       122 2.55767E+00 6.00000E-01 1.56607E-16
 -1       123 2.38160E+00 6.00000E-01 1.45826E-16
 -1       124 2.20553E+00 6.00000E-01 1.35045E-16
 -1       125 2.02946E+00 6.00000E-01 1.24264E-16
 -1       126 1.78536E+00 7.14644E-01 1.09318E-16
 -1       127 1.70000E+00 8.00000E-01 1.04092E-16
 -1       128 1.61465E+00 8.85355E-01 9.88652E-17
 -1       129 1.82803E+00 6.71967E-01 1.11931E-16
 -1       130 1.74268E+00 7.57322E-01 1.06705E-16
 -1       131 1.65732E+00 8.42678E-01 1.01478E-16
 -1       132 1.57197E+00 9.28033E-01 9.62520E-17
 -1       133 1.36893E+00 1.00000E+00 8.38203E-17
 -1       134 1.27929E+00 1.00000E+00 7.83313E-17
 -1       135 1.18965E+00 1.00000E+00 7.28423E-17
 -1       136 1.41376E+00 1.00000E+00 8.65648E-17
 -1       137 1.32411E+00 1.00000E+00 8.10758E-17
 -1       138 1.23447E+00 1.00000E+00 7.55868E-17
 -1       139 1.14482E+00 1.00000E+00 7.00978E-17
 -1       140 1.00000E+00 8.00000E-01 6.12303E-17
 -1       141 1.00000E+00 7.00000E-01 6.12303E-17
 -1       142 1.00000E+00 6.00000E-01 6.12303E-17
 -1       143 1.00000E+00 5.00000E-01 6.12303E-17
 -1       144 1.00000E+00 4.00000E-01 6.12303E-17
 -1       145 1.00000E+00 3.00000E-01 6.12303E-17
 -1       146 1.00000E+00 2.00000E-01 6.12303E-17
 -1       147 1.00000E+00 8.50000E-01 6.12303E-17
 -1       148 1.00000E+00 7.50000E-01 6.12303E-17
 -1       149 1.00000E+00 6.50000E-01 6.12303E-17
 -1       150 1.00000E+00 5.50000E-01 6.12303E-17
 -1       151 1.00000E+00 4.50000E-01 6.12303E-17
 -1       152 1.00000E+00 3.50000E-01 6.12303E-17
 -1       153 1.00000E+00 2.50000E-01 6.12303E-17
 -1       154 1.00000E+00 1.50000E-01 6.12303E-17
 -1       155 3.62500E+00 3.00000E-01 2.21960E-16
 -1       156 3.75000E+00 3.00000E-01 2.29614E-16
 -1       157 3.87500E+00 3.00000E-01 2.37267E-16
 -1       158 4.00000E+00 3.00000E-01 2.44921E-16
 -1       159 4.12500E+00 3.00000E-01 2.52575E-16
 -1       160 4.25000E+00 3.00000E-01 2.60229E-16
 -1       161 4.37500E+00 3.00000E-01 2.67883E-16
 -1       162 3.56250E+00 3.00000E-01 2.18133E-16
 -1       163 3.68750E+00 3.00000E-01 2.25787E-16
 -1       164 3.81250E+00 3.00000E-01 2.33441E-16
 -1       165 3.93750E+00 3.00000E-01 2.41094E-16
 -1       166 4.06250E+00 3.00000E-01 2.48748E-16
 -1       167 4.18750E+00 3.00000E-01 2.56402E-16
 -1       168 4.31250E+00 3.00000E-01 2.64056E-16
 -1       169 4.43750E+00 3.00000E-01 2.71710E-16
 -1       170 4.50000E+00 4.00000E-01 2.75536E-16
 -1       171 4.50000E+00 5.00000E-01 2.75536E-16
 -1       172 4.50000E+00 6.00000E-01 2.75536E-16
 -1       173 4.50000E+00 3.50000E-01 2.75536E-16
 -1       174 4.50000E+00 4.50000E-01 2.75536E-16
 -1       175 4.50000E+00 5.50000E-01 2.75536E-16
 -1       176 4.50000E+00 6.50000E-01 2.75536E-16
 -1       177 4.37500E+00 7.00000E-01 2.67883E-16
 -1       178 4.25000E+00 7.00000E-01 2.60229E-16
 -1       179 4.12500E+00 7.00000E-01 2.52575E-16
 -1       180 4.00000E+00 7.00000E-01 2.44921E-16
 -1       181 3.87500E+00 7.00000E-01 2.37267E-16
 -1       182 3.75000E+00 7.00000E-01 2.29614E-16
 -1       183 3.62500E+00 7.00000E-01 2.21960E-16
 -1       184 4.43750E+00 7.00000E-01 2.71710E-16
 -1       185 4.31250E+00 7.00000E-01 2.64056E-16
 -1       186 4.18750E+00 7.00000E-01 2.56402E-16
 -1       187 4.06250E+00 7.00000E-01 2.48748E-16
 -1       188 3.93750E+00 7.00000E-01 2.41094E-16
 -1       189 3.81250E+00 7.00000E-01 2.33441E-16
 -1       190 3.68750E+00 7.00000E-01 2.25787E-16
 -1       191 3.56250E+00 7.00000E-01 2.18133E-16
 -1       192 1.00761E+00 6.17320E-02 6.16964E-17
 -1       193 1.02929E+00 2.92890E-02 6.30237E-17
 -1       194 1.06173E+00 7.61200E-03 6.50102E-17
 -1       195 1.00192E+00 8.04910E-02 6.13479E-17
 -1       196 1.01685E+00 4.44430E-02 6.22622E-17
 -1       197 1.04444E+00 1.68530E-02 6.39516E-17
 -1       198 1.08049E+00 1.92100E-03 6.61588E-17
 -1       199 1.06173E+00 9.92388E-01 6.50102E-17
 -1       200 1.02929E+00 9.70711E-01 6.30237E-17
 -1       201 1.00761E+00 9.38268E-01 6.16964E-17
 -1       202 1.08049E+00 9.98079E-01 6.61588E-17
 -1       203 1.04444E+00 9.83147E-01 6.39516E-17
 -1       204 1.01685E+00 9.55557E-01 6.22622E-17
 -1       205 1.00192E+00 9.19509E-01 6.13479E-17
 -1       206 1.47809E+00 1.92100E-03 9.05038E-17
 -1       207 1.49685E+00 7.61200E-03 9.16524E-17
 -1       208 1.51414E+00 1.68530E-02 9.27110E-17
 -1       209 1.46838E+00 4.82000E-04 8.99094E-17
 -1       210 1.48761E+00 4.30600E-03 9.10866E-17
 -1       211 1.50572E+00 1.18080E-02 9.21956E-17
 -1       212 1.52202E+00 2.26990E-02 9.31936E-17
 -1       213 1.51414E+00 9.83147E-01 9.27110E-17
 -1       214 1.49685E+00 9.92388E-01 9.16524E-17
 -1       215 1.47809E+00 9.98078E-01 9.05038E-17
 -1       216 1.52202E+00 9.77301E-01 9.31936E-17
 -1       217 1.50572E+00 9.88192E-01 9.21956E-17
 -1       218 1.48761E+00 9.95694E-01 9.10866E-17
 -1       219 1.46838E+00 9.99518E-01 8.99094E-17
 -1       220 1.88586E+00 3.83147E-01 1.15472E-16
 -1       221 1.90315E+00 3.92388E-01 1.16531E-16
 -1       222 1.92191E+00 3.98078E-01 1.17679E-16
 -1       223 1.87798E+00 3.77301E-01 1.14989E-16
 -1       224 1.89428E+00 3.88192E-01 1.15987E-16
 -1       225 1.91239E+00 3.95694E-01 1.17096E-16
 -1       226 1.93162E+00 3.99518E-01 1.18274E-16
 -1       227 1.92191E+00 6.01921E-01 1.17679E-16
 -1       228 1.90315E+00 6.07612E-01 1.16531E-16
 -1       229 1.88586E+00 6.16853E-01 1.15472E-16
 -1       230 1.93162E+00 6.00482E-01 1.18274E-16
 -1       231 1.91239E+00 6.04306E-01 1.17096E-16
 -1       232 1.89428E+00 6.11808E-01 1.15987E-16
 -1       233 1.87798E+00 6.22699E-01 1.14989E-16
 -1       234 3.38827E+00 3.92388E-01 2.07465E-16
 -1       235 3.42071E+00 3.70711E-01 2.09451E-16
 -1       236 3.44239E+00 3.38268E-01 2.10779E-16
 -1       237 3.36951E+00 3.98079E-01 2.06316E-16
 -1       238 3.40556E+00 3.83147E-01 2.08523E-16
 -1       239 3.43315E+00 3.55557E-01 2.10213E-16
 -1       240 3.44808E+00 3.19509E-01 2.11127E-16
 -1       241 3.44239E+00 6.61732E-01 2.10779E-16
 -1       242 3.42071E+00 6.29289E-01 2.09451E-16
 -1       243 3.38827E+00 6.07612E-01 2.07465E-16
 -1       244 3.44808E+00 6.80491E-01 2.11127E-16
 -1       245 3.43315E+00 6.44443E-01 2.10213E-16
 -1       246 3.40556E+00 6.16853E-01 2.08523E-16
 -1       247 3.36951E+00 6.01921E-01 2.06316E-16
 -1       248 1.57941E+00 6.57832E-01 9.67075E-17
 -1       249 1.47052E+00 2.21776E-01 9.00403E-17
 -1       250 1.91759E+00 5.12309E-01 1.17414E-16
 -1       251 1.20784E+00 7.06760E-01 7.39565E-17
 -1       252 1.09214E+00 9.17300E-02 6.68721E-17
 -1       253 1.08857E+00 8.99368E-01 6.66535E-17
 -1       254 1.22332E+00 4.44794E-01 7.49045E-17
 -1       255 1.31112E+00 8.34275E-01 8.02805E-17
 -1       256 1.58644E+00 3.58504E-01 9.71382E-17
 -1       257 1.43871E+00 8.13457E-01 8.80925E-17
 -1       258 1.16056E+00 1.48562E-01 7.10616E-17
 -1       259 1.71588E+00 5.05659E-01 1.05064E-16
 -1       260 1.37891E+00 1.19785E-01 8.44313E-17
 -1       261 1.16807E+00 3.27035E-01 7.15214E-17
 -1       262 1.36004E+00 3.52401E-01 8.32758E-17
 -1       263 1.26051E+00 2.36942E-01 7.71813E-17
 -1       264 1.32773E+00 6.08958E-01 8.12975E-17
 -1       265 1.46328E+00 4.97198E-01 8.95969E-17
 -1       266 1.14391E+00 8.11456E-01 7.00419E-17
 -1       267 3.46250E+00 0.00000E+00 2.12010E-16
 -1       268 3.47500E+00 9.00000E-01 2.12775E-16
 -1       269 3.47500E+00 8.00000E-01 2.12775E-16
 -1       270 3.48750E+00 1.00000E+00 2.13541E-16
 -1       271 3.47500E+00 1.00000E-01 2.12775E-16
 -1       272 3.47500E+00 2.00000E-01 2.12775E-16
 -1       273 1.89415E+00 5.70799E-01 1.15979E-16
 -1       274 1.91037E+00 5.59961E-01 1.16973E-16
 -1       275 1.92950E+00 5.56155E-01 1.18144E-16
 -1       276 3.47500E+00 7.00000E-01 2.12775E-16
 -1       277 3.46036E+00 6.64645E-01 2.11879E-16
 -1       278 3.47500E+00 3.00000E-01 2.12775E-16
 -1       279 3.46036E+00 3.35355E-01 2.11879E-16
 -1       280 3.46036E+00 4.35355E-01 2.11879E-16
 -1       281 3.42500E+00 4.50000E-01 2.09714E-16
 -1       282 3.46036E+00 5.64645E-01 2.11879E-16
 -1       283 3.42500E+00 5.50000E-01 2.09714E-16
 -1       284 2.46964E+00 5.00000E-01 1.51217E-16
 -1       285 2.29357E+00 5.00000E-01 1.40436E-16
 -1       286 2.11749E+00 5.00000E-01 1.29655E-16
 -1       287 1.89415E+00 4.41510E-01 1.15979E-16
 -1       288 1.91037E+00 4.52349E-01 1.16973E-16
 -1       289 1.92950E+00 4.56155E-01 1.18144E-16
 -1       290 1.09429E+00 9.49684E-01 6.70034E-17
 -1       291 1.11624E+00 8.55412E-01 6.83477E-17
 -1       292 1.21160E+00 9.05728E-01 7.41866E-17
 -1       293 1.15294E+00 9.27706E-01 7.05950E-17
 -1       294 1.41166E+00 4.24800E-01 8.64363E-17
 -1       295 1.39550E+00 5.53078E-01 8.54472E-17
 -1       296 1.27553E+00 5.26876E-01 7.81010E-17
 -1       297 1.29168E+00 3.98598E-01 7.90902E-17
 -1       298 1.34359E+00 4.75838E-01 8.22686E-17
 -1       299 1.65116E+00 4.32081E-01 1.01101E-16
 -1       300 1.64322E+00 2.79252E-01 1.00615E-16
 -1       301 1.79330E+00 4.38185E-01 1.09804E-16
 -1       302 1.71826E+00 3.58718E-01 1.05209E-16
 -1       303 1.04607E+00 9.58650E-02 6.40513E-17
 -1       304 1.12635E+00 1.20146E-01 6.89669E-17
 -1       305 1.08028E+00 2.24281E-01 6.61459E-17
 -1       306 1.06318E+00 1.60073E-01 6.50986E-17
 -1       307 1.21993E+00 7.42810E-02 7.46965E-17
 -1       308 1.09607E+00 4.58650E-02 6.71128E-17
 -1       309 1.15800E+00 6.00730E-02 7.09046E-17
 -1       310 1.48400E+00 8.92084E-01 9.08657E-17
 -1       311 1.50906E+00 7.35645E-01 9.24000E-17
 -1       312 1.63970E+00 7.28916E-01 1.00400E-16
 -1       313 1.56185E+00 8.10500E-01 9.56326E-17
 -1       314 1.64764E+00 5.81746E-01 1.00886E-16
 -1       315 1.79330E+00 5.67474E-01 1.09804E-16
 -1       316 1.71650E+00 6.48195E-01 1.05102E-16
 -1       317 1.52848E+00 2.90140E-01 9.35893E-17
 -1       318 1.49990E+00 1.25532E-01 9.18396E-17
 -1       319 1.57156E+00 2.02392E-01 9.62272E-17
 -1       320 1.43788E+00 6.36980E-02 8.80418E-17
 -1       321 1.32910E+00 5.98920E-02 8.13813E-17
 -1       322 1.40359E+00 3.09070E-02 8.59426E-17
 -1       323 1.31027E+00 2.94671E-01 8.02286E-17
 -1       324 1.19570E+00 3.85915E-01 7.32130E-17
 -1       325 1.21429E+00 2.81988E-01 7.43514E-17
 -1       326 1.25299E+00 3.40293E-01 7.67208E-17
 -1       327 1.37492E+00 8.23866E-01 8.41865E-17
 -1       328 1.25948E+00 7.70517E-01 7.71185E-17
 -1       329 1.26779E+00 6.57859E-01 7.76270E-17
 -1       330 1.38322E+00 7.11208E-01 8.46950E-17
 -1       331 1.32135E+00 7.40862E-01 8.09067E-17
 -1       332 1.11166E+00 4.72397E-01 6.80674E-17
 -1       333 1.08404E+00 3.13518E-01 6.63759E-17
 -1       334 1.09785E+00 3.92957E-01 6.72216E-17
 -1       335 1.44864E+00 9.06729E-01 8.87009E-17
 -1       336 1.48158E+00 9.45880E-01 9.07174E-17
 -1       337 1.07195E+00 7.55728E-01 6.56361E-17
 -1       338 1.10392E+00 6.03380E-01 6.75934E-17
 -1       339 1.17587E+00 7.59108E-01 7.19992E-17
 -1       340 1.08794E+00 6.79554E-01 6.66148E-17
 -1       341 1.52486E+00 4.27851E-01 9.33675E-17
 -1       342 1.41528E+00 2.87089E-01 8.66580E-17
 -1       343 1.47007E+00 3.57470E-01 9.00128E-17
 -1       344 1.04429E+00 8.99684E-01 6.39419E-17
 -1       345 1.05812E+00 8.27706E-01 6.47890E-17
 -1       346 1.52134E+00 5.77515E-01 9.31522E-17
 -1       347 1.58625E+00 5.04798E-01 9.71266E-17
 -1       348 1.21054E+00 1.92752E-01 7.41214E-17
 -1       349 1.14728E+00 2.53135E-01 7.02486E-17
 -1       350 1.42472E+00 1.70780E-01 8.72358E-17
 -1       351 1.46943E+00 9.38170E-02 8.99734E-17
 -1       352 1.29521E+00 9.17138E-01 7.93059E-17
 -1       353 1.23554E+00 8.38123E-01 7.56526E-17
 -1       354 1.04949E+00 9.47492E-01 6.42607E-17
 -1       355 1.18972E+00 5.65128E-01 7.28472E-17
 -1       356 1.31971E+00 1.78363E-01 8.08063E-17
 -1       357 1.26982E+00 1.26322E-01 7.77514E-17
 -1       358 1.37192E+00 9.11933E-01 8.40034E-17
 -1       359 1.05038E+00 5.02820E-02 6.43154E-17
 -1       360 1.45228E+00 6.44361E-01 8.89236E-17
 -1       361 1.36749E+00 2.32726E-01 8.37322E-17
 -1       362 2.02350E+00 5.28077E-01 1.23899E-16
 -1       363 3.48125E+00 0.00000E+00 2.13158E-16
 -1       364 3.46875E+00 1.00000E+00 2.12393E-16
 -1       365 2.82178E+00 5.00000E-01 1.72779E-16
 -1       366 2.64571E+00 5.00000E-01 1.61998E-16
 -1       367 3.17393E+00 5.00000E-01 1.94341E-16
 -1       368 2.99785E+00 5.00000E-01 1.83560E-16
 -1       369 3.29946E+00 5.25000E-01 2.02027E-16
 -1       370 1.84372E+00 5.04492E-01 1.12892E-16
 -1       371 3.45833E+00-3.33330E-02 2.11755E-16
 -1       372 3.48333E+00 8.33333E-01 2.13286E-16
 -1       373 3.49167E+00 1.03333E+00 2.13796E-16
 -1       374 3.46667E+00 1.66667E-01 2.12265E-16
 -1       375 1.89697E+00 5.82804E-01 1.16152E-16
 -1       376 1.92066E+00 5.72993E-01 1.17603E-16
 -1       377 3.46667E+00 7.66667E-01 2.12265E-16
 -1       378 3.45808E+00 6.75944E-01 2.11739E-16
 -1       379 3.48333E+00 2.33333E-01 2.13286E-16
 -1       380 3.45808E+00 3.24056E-01 2.11739E-16
 -1       381 3.47357E+00 3.90237E-01 2.12688E-16
 -1       382 3.42406E+00 4.24742E-01 2.09656E-16
 -1       383 3.47357E+00 6.09763E-01 2.12688E-16
 -1       384 3.42406E+00 5.75258E-01 2.09656E-16
 -1       385 2.41095E+00 4.66667E-01 1.47623E-16
 -1       386 2.17618E+00 4.66667E-01 1.33248E-16
 -1       387 1.89697E+00 4.25402E-01 1.16152E-16
 -1       388 1.92066E+00 4.35213E-01 1.17603E-16
 -1       389 1.09714E+00 9.74842E-01 6.71784E-17
 -1       390 1.12361E+00 9.38695E-01 6.87992E-17
 -1       391 1.17129E+00 9.63853E-01 7.17186E-17
 -1       392 1.09143E+00 9.24526E-01 6.68285E-17
 -1       393 1.10240E+00 8.77390E-01 6.75006E-17
 -1       394 1.13459E+00 8.91559E-01 6.94714E-17
 -1       395 1.13007E+00 8.33434E-01 6.91948E-17
 -1       396 1.17775E+00 8.58592E-01 7.21143E-17
 -1       397 1.18227E+00 9.16717E-01 7.23908E-17
 -1       398 1.24544E+00 9.52864E-01 7.62589E-17
 -1       399 1.38585E+00 3.88601E-01 8.48561E-17
 -1       400 1.37763E+00 4.50319E-01 8.43525E-17
 -1       401 1.31764E+00 4.37218E-01 8.06794E-17
 -1       402 1.32586E+00 3.75500E-01 8.11830E-17
 -1       403 1.43747E+00 4.60999E-01 8.80166E-17
 -1       404 1.42939E+00 5.25138E-01 8.75220E-17
 -1       405 1.36955E+00 5.14458E-01 8.38579E-17
 -1       406 1.36162E+00 5.81018E-01 8.33723E-17
 -1       407 1.30163E+00 5.67917E-01 7.96992E-17
 -1       408 1.30956E+00 5.01357E-01 8.01848E-17
 -1       409 1.24943E+00 4.85835E-01 7.65028E-17
 -1       410 1.25750E+00 4.21696E-01 7.69973E-17
 -1       411 1.68352E+00 4.68870E-01 1.03082E-16
 -1       412 1.68471E+00 3.95400E-01 1.03155E-16
 -1       413 1.75578E+00 3.98452E-01 1.07507E-16
 -1       414 1.75459E+00 4.71922E-01 1.07434E-16
 -1       415 1.61880E+00 3.95292E-01 9.91196E-17
 -1       416 1.61483E+00 3.18878E-01 9.88766E-17
 -1       417 1.68074E+00 3.18985E-01 1.02912E-16
 -1       418 1.67161E+00 2.39626E-01 1.02353E-16
 -1       419 1.75181E+00 3.22037E-01 1.07264E-16
 -1       420 1.83200E+00 4.04448E-01 1.12174E-16
 -1       421 1.03159E+00 1.80036E-01 6.31645E-17
 -1       422 1.07173E+00 1.92177E-01 6.56222E-17
 -1       423 1.04014E+00 2.62140E-01 6.36881E-17
 -1       424 1.02304E+00 9.79320E-02 6.26408E-17
 -1       425 1.05462E+00 1.27969E-01 6.45749E-17
 -1       426 1.06911E+00 9.37970E-02 6.54617E-17
 -1       427 1.10925E+00 1.05938E-01 6.79195E-17
 -1       428 1.09476E+00 1.40109E-01 6.70327E-17
 -1       429 1.14346E+00 1.34354E-01 7.00142E-17
 -1       430 1.12042E+00 1.86421E-01 6.86037E-17
 -1       431 1.17382E+00 3.00360E-02 7.18734E-17
 -1       432 1.12703E+00 5.29690E-02 6.90086E-17
 -1       433 1.09803E+00 2.29320E-02 6.72330E-17
 -1       434 1.24961E+00 3.71400E-02 7.65139E-17
 -1       435 1.18896E+00 6.71770E-02 7.28005E-17
 -1       436 1.19024E+00 1.11421E-01 7.28790E-17
 -1       437 1.14217E+00 9.01090E-02 6.99357E-17
 -1       438 1.09411E+00 6.87970E-02 6.69925E-17
 -1       439 1.50664E+00 9.31398E-01 9.22523E-17
 -1       440 1.52292E+00 8.51292E-01 9.32491E-17
 -1       441 1.58825E+00 8.47928E-01 9.72489E-17
 -1       442 1.46135E+00 8.52771E-01 8.94791E-17
 -1       443 1.47388E+00 7.74551E-01 9.02463E-17
 -1       444 1.53545E+00 7.73073E-01 9.40163E-17
 -1       445 1.54423E+00 6.96739E-01 9.45538E-17
 -1       446 1.60956E+00 6.93374E-01 9.85536E-17
 -1       447 1.60078E+00 7.69708E-01 9.80161E-17
 -1       448 1.66985E+00 7.64458E-01 1.02246E-16
 -1       449 1.75093E+00 6.81420E-01 1.07210E-16
 -1       450 1.75490E+00 6.07834E-01 1.07453E-16
 -1       451 1.83200E+00 5.98381E-01 1.12174E-16
 -1       452 1.67810E+00 6.88556E-01 1.02751E-16
 -1       453 1.61352E+00 6.19789E-01 9.87966E-17
 -1       454 1.68207E+00 6.14970E-01 1.02994E-16
 -1       455 1.68176E+00 5.43702E-01 1.02975E-16
 -1       456 1.75459E+00 5.36566E-01 1.07434E-16
 -1       457 1.59310E+00 1.58518E-01 9.75462E-17
 -1       458 1.53573E+00 1.63962E-01 9.40334E-17
 -1       459 1.51460E+00 7.74110E-02 9.27392E-17
 -1       460 1.60739E+00 2.40822E-01 9.84211E-17
 -1       461 1.55746E+00 3.24322E-01 9.53637E-17
 -1       462 1.55002E+00 2.46266E-01 9.49082E-17
 -1       463 1.49950E+00 2.55958E-01 9.18147E-17
 -1       464 1.48521E+00 1.73654E-01 9.09399E-17
 -1       465 1.38626E+00 1.54530E-02 8.48814E-17
 -1       466 1.36635E+00 4.54000E-02 8.36619E-17
 -1       467 1.30420E+00 2.99460E-02 7.98563E-17
 -1       468 1.44084E+00 1.64140E-02 8.82232E-17
 -1       469 1.46736E+00 3.56550E-02 8.98471E-17
 -1       470 1.42074E+00 4.73030E-02 8.69922E-17
 -1       471 1.40840E+00 9.17420E-02 8.62365E-17
 -1       472 1.35401E+00 8.98390E-02 8.29063E-17
 -1       473 1.28539E+00 2.65806E-01 7.87050E-17
 -1       474 1.28163E+00 3.17482E-01 7.84747E-17
 -1       475 1.23364E+00 3.11141E-01 7.55360E-17
 -1       476 1.23740E+00 2.59465E-01 7.57663E-17
 -1       477 1.33516E+00 3.23536E-01 8.17522E-17
 -1       478 1.27234E+00 3.69446E-01 7.79055E-17
 -1       479 1.20951E+00 4.15355E-01 7.40587E-17
 -1       480 1.22434E+00 3.63104E-01 7.49668E-17
 -1       481 1.18189E+00 3.56475E-01 7.23672E-17
 -1       482 1.19118E+00 3.04512E-01 7.29364E-17
 -1       483 1.40681E+00 8.18662E-01 8.61395E-17
 -1       484 1.34813E+00 7.82364E-01 8.25466E-17
 -1       485 1.35229E+00 7.26035E-01 8.28008E-17
 -1       486 1.41096E+00 7.62332E-01 8.63937E-17
 -1       487 1.34302E+00 8.29071E-01 8.22335E-17
 -1       488 1.28530E+00 8.02396E-01 7.86996E-17
 -1       489 1.29042E+00 7.55690E-01 7.90126E-17
 -1       490 1.23366E+00 7.38639E-01 7.55375E-17
 -1       491 1.23781E+00 6.82309E-01 7.57917E-17
 -1       492 1.29457E+00 6.99361E-01 7.92669E-17
 -1       493 1.29776E+00 6.33408E-01 7.94622E-17
 -1       494 1.35548E+00 6.60083E-01 8.29962E-17
 -1       495 1.14677E+00 3.89436E-01 7.02173E-17
 -1       496 1.09094E+00 3.53237E-01 6.67987E-17
 -1       497 1.12605E+00 3.20276E-01 6.89486E-17
 -1       498 1.16749E+00 4.58596E-01 7.14860E-17
 -1       499 1.10476E+00 4.32677E-01 6.76445E-17
 -1       500 1.05583E+00 4.86199E-01 6.46489E-17
 -1       501 1.04892E+00 3.96479E-01 6.42259E-17
 -1       502 1.04202E+00 3.06759E-01 6.38031E-17
 -1       503 1.49786E+00 9.64514E-01 9.17142E-17
 -1       504 1.48279E+00 9.18982E-01 9.07915E-17
 -1       505 1.47983E+00 9.71979E-01 9.06106E-17
 -1       506 1.45361E+00 9.53364E-01 8.90051E-17
 -1       507 1.46511E+00 9.26304E-01 8.97092E-17
 -1       508 1.44368E+00 8.60093E-01 8.83967E-17
 -1       509 1.10793E+00 7.83592E-01 6.78390E-17
 -1       510 1.07995E+00 7.17641E-01 6.61254E-17
 -1       511 1.13191E+00 7.19331E-01 6.93070E-17
 -1       512 1.15989E+00 7.85282E-01 7.10206E-17
 -1       513 1.03598E+00 7.27864E-01 6.34332E-17
 -1       514 1.04397E+00 6.39777E-01 6.39226E-17
 -1       515 1.05196E+00 5.51690E-01 6.44118E-17
 -1       516 1.09593E+00 6.41467E-01 6.71041E-17
 -1       517 1.15588E+00 6.55070E-01 7.07750E-17
 -1       518 1.19186E+00 7.32934E-01 7.29778E-17
 -1       519 1.49927E+00 3.23805E-01 9.18010E-17
 -1       520 1.44267E+00 3.22279E-01 8.83354E-17
 -1       521 1.44290E+00 2.54432E-01 8.83492E-17
 -1       522 1.55565E+00 3.93177E-01 9.52528E-17
 -1       523 1.49746E+00 3.92660E-01 9.16901E-17
 -1       524 1.49407E+00 4.62524E-01 9.14821E-17
 -1       525 1.44086E+00 3.91135E-01 8.82246E-17
 -1       526 1.38766E+00 3.19745E-01 8.49669E-17
 -1       527 1.06504E+00 7.91717E-01 6.52126E-17
 -1       528 1.02906E+00 8.13853E-01 6.30097E-17
 -1       529 1.08718E+00 8.41559E-01 6.65684E-17
 -1       530 1.06643E+00 8.99526E-01 6.52977E-17
 -1       531 1.05120E+00 8.63695E-01 6.43654E-17
 -1       532 1.02214E+00 8.99842E-01 6.25861E-17
 -1       533 1.55037E+00 6.17674E-01 9.49299E-17
 -1       534 1.55379E+00 5.41157E-01 9.51394E-17
 -1       535 1.61695E+00 5.43272E-01 9.90061E-17
 -1       536 1.49231E+00 5.37357E-01 9.13745E-17
 -1       537 1.55555E+00 4.66325E-01 9.52471E-17
 -1       538 1.61870E+00 4.68440E-01 9.91138E-17
 -1       539 1.11378E+00 2.38708E-01 6.81973E-17
 -1       540 1.11566E+00 2.83326E-01 6.83123E-17
 -1       541 1.18555E+00 1.70657E-01 7.25915E-17
 -1       542 1.17891E+00 2.22943E-01 7.21850E-17
 -1       543 1.23552E+00 2.14847E-01 7.56514E-17
 -1       544 1.18079E+00 2.67561E-01 7.23000E-17
 -1       545 1.44762E+00 1.96278E-01 8.86380E-17
 -1       546 1.44707E+00 1.32298E-01 8.86046E-17
 -1       547 1.48467E+00 1.09674E-01 9.09065E-17
 -1       548 1.40181E+00 1.45283E-01 8.58335E-17
 -1       549 1.45365E+00 7.87570E-02 8.90076E-17
 -1       550 1.49178E+00 5.53350E-02 9.13422E-17
 -1       551 1.22357E+00 8.71925E-01 7.49196E-17
 -1       552 1.26537E+00 8.77630E-01 7.74793E-17
 -1       553 1.28725E+00 9.58569E-01 7.88186E-17
 -1       554 1.20571E+00 7.98615E-01 7.38259E-17
 -1       555 1.24751E+00 8.04320E-01 7.63856E-17
 -1       556 1.30317E+00 8.75706E-01 7.97933E-17
 -1       557 1.05561E+00 9.69940E-01 6.46355E-17
 -1       558 1.07189E+00 9.48588E-01 6.56321E-17
 -1       559 1.02855E+00 9.42880E-01 6.29786E-17
 -1       560 1.04689E+00 9.23588E-01 6.41013E-17
 -1       561 1.15069E+00 5.18763E-01 7.04573E-17
 -1       562 1.14682E+00 5.84254E-01 7.02203E-17
 -1       563 1.23263E+00 5.46002E-01 7.54741E-17
 -1       564 1.22876E+00 6.11493E-01 7.52371E-17
 -1       565 1.24487E+00 1.00302E-01 7.62239E-17
 -1       566 1.24018E+00 1.59537E-01 7.59364E-17
 -1       567 1.29946E+00 9.31070E-02 7.95664E-17
 -1       568 1.34931E+00 1.49074E-01 8.26188E-17
 -1       569 1.29476E+00 1.52343E-01 7.92788E-17
 -1       570 1.29011E+00 2.07652E-01 7.89938E-17
 -1       571 1.37043E+00 9.55967E-01 8.39119E-17
 -1       572 1.41028E+00 9.09331E-01 8.63521E-17
 -1       573 1.33357E+00 9.14535E-01 8.16547E-17
 -1       574 1.37342E+00 8.67900E-01 8.40949E-17
 -1       575 1.07323E+00 4.80730E-02 6.57141E-17
 -1       576 1.05606E+00 2.89470E-02 6.46628E-17
 -1       577 1.04823E+00 7.30730E-02 6.41833E-17
 -1       578 1.02900E+00 5.60070E-02 6.30059E-17
 -1       579 1.41775E+00 6.77784E-01 8.68093E-17
 -1       580 1.48067E+00 6.90003E-01 9.06618E-17
 -1       581 1.42389E+00 5.98720E-01 8.71854E-17
 -1       582 1.48681E+00 6.10938E-01 9.10379E-17
 -1       583 1.33888E+00 2.63699E-01 8.19804E-17
 -1       584 1.39139E+00 2.59907E-01 8.51951E-17
 -1       585 1.34360E+00 2.05545E-01 8.22692E-17
 -1       586 1.39611E+00 2.01753E-01 8.54840E-17
 -1       587 1.92355E+00 4.84232E-01 1.17779E-16
 -1       588 1.97650E+00 4.92116E-01 1.21022E-16
 -1       589 1.97650E+00 5.42116E-01 1.21022E-16
 -1       590 1.92355E+00 5.34232E-01 1.17779E-16
 -1       591 1.93546E+00 4.28077E-01 1.18509E-16