
 stresses (elem, integ.pnt.,sxx,syy,szz,sxy,sxz,syz) for set EALL and time  0.1000000E+01

         1   1 -1.601832E+05 -1.124711E+05 -5.453086E+04 -1.403444E+03 -1.694066E-10 -6.437450E-09
         1   2 -1.684370E+05 -1.151001E+05 -5.670742E+04  5.675094E+02 -1.524659E-09 -8.978549E-09
         1   3 -1.776941E+05 -1.165106E+05 -5.884092E+04  3.220931E+03  1.376429E-10 -1.694066E-10
         1   4 -1.854578E+05 -1.194541E+05 -6.098238E+04 -1.425671E+03  6.776264E-10 -4.065758E-09
         1   5 -1.906482E+05 -1.209870E+05 -6.232703E+04  3.571961E+03 -2.710505E-09  1.355253E-09
         1   6 -1.962054E+05 -1.210651E+05 -6.345408E+04  9.634063E+03  2.117582E-09 -7.284483E-09
         1   7 -2.121769E+05 -1.322334E+05 -6.888205E+04 -1.941381E+03 -1.355253E-09  0.000000E+00
         1   8 -2.145748E+05 -1.333962E+05 -6.959421E+04  5.738437E+03  6.776264E-10  8.131516E-09
         1   9 -2.168193E+05 -1.330065E+05 -6.996516E+04  1.476724E+04  2.032879E-09 -6.098637E-09
         1  10 -1.601832E+05 -1.124711E+05 -5.453086E+04 -1.403444E+03  1.694066E-10  6.776264E-10
         1  11 -1.684370E+05 -1.151001E+05 -5.670742E+04  5.675094E+02  2.541099E-10 -2.032879E-09
         1  12 -1.776941E+05 -1.165106E+05 -5.884092E+04  3.220931E+03 -8.470329E-11 -9.317362E-10
         1  13 -1.854578E+05 -1.194541E+05 -6.098238E+04 -1.425671E+03  1.016440E-09  0.000000E+00
         1  14 -1.906482E+05 -1.209870E+05 -6.232703E+04  3.571961E+03 -3.388132E-10 -4.065758E-09
         1  15 -1.962054E+05 -1.210651E+05 -6.345408E+04  9.634063E+03  8.046813E-10 -1.694066E-10
         1  16 -2.121769E+05 -1.322334E+05 -6.888205E+04 -1.941381E+03  0.000000E+00 -1.355253E-09
         1  17 -2.145748E+05 -1.333962E+05 -6.959421E+04  5.738437E+03  0.000000E+00  1.355253E-09
         1  18 -2.168193E+05 -1.330065E+05 -6.996516E+04  1.476724E+04 -1.058791E-10  7.623297E-10
         1  19 -1.601832E+05 -1.124711E+05 -5.453086E+04 -1.403444E+03  1.524659E-09  1.016440E-09
         1  20 -1.684370E+05 -1.151001E+05 -5.670742E+04  5.675094E+02 -1.185846E-09  3.557538E-09
         1  21 -1.776941E+05 -1.165106E+05 -5.884092E+04  3.220931E+03  1.217610E-09  1.694066E-10
         1  22 -1.854578E+05 -1.194541E+05 -6.098238E+04 -1.425671E+03  6.776264E-10  4.065758E-09
         1  23 -1.906482E+05 -1.209870E+05 -6.232703E+04  3.571961E+03  0.000000E+00 -1.355253E-09
         1  24 -1.962054E+05 -1.210651E+05 -6.345408E+04  9.634063E+03 -7.623297E-10  7.284483E-09
         1  25 -2.121769E+05 -1.322334E+05 -6.888205E+04 -1.941381E+03  1.355253E-09  0.000000E+00
         1  26 -2.145748E+05 -1.333962E+05 -6.959421E+04  5.738437E+03 -6.776264E-10  2.710505E-09
         1  27 -2.168193E+05 -1.330065E+05 -6.996516E+04  1.476724E+04  6.776264E-10 -4.743385E-09
         2   1 -1.822680E+05 -1.165569E+05 -5.976499E+04  7.738926E+03 -1.694066E-10  3.049319E-09
         2   2 -1.885894E+05 -1.132870E+05 -6.037527E+04  1.615351E+04  1.694066E-10 -3.388132E-09
         2   3 -1.953158E+05 -1.102300E+05 -6.110916E+04  2.440929E+04 -6.564505E-10 -1.694066E-10
         2   4 -2.002994E+05 -1.223910E+05 -6.453809E+04  1.523698E+04  3.388132E-09 -2.710505E-09
         2   5 -2.073582E+05 -1.176623E+05 -6.500411E+04  2.412360E+04  1.694066E-09 -4.065758E-09
         2   6 -2.148022E+05 -1.128395E+05 -6.552834E+04  3.307436E+04  3.134022E-09 -1.033380E-08
         2   7 -2.185589E+05 -1.301440E+05 -6.974058E+04  2.341438E+04  1.355253E-09 -8.131516E-09
         2   8 -2.263735E+05 -1.243831E+05 -7.015132E+04  3.277219E+04  3.388132E-09  0.000000E+00
         2   9 -2.345627E+05 -1.183222E+05 -7.057699E+04  4.241147E+04  0.000000E+00 -3.388132E-10
         2  10 -1.822680E+05 -1.165569E+05 -5.976499E+04  7.738926E+03  0.000000E+00  0.000000E+00
         2  11 -1.885894E+05 -1.132870E+05 -6.037527E+04  1.615351E+04  1.694066E-10  6.776264E-10
         2  12 -1.953158E+05 -1.102300E+05 -6.110916E+04  2.440929E+04  2.117582E-11  3.388132E-10
         2  13 -2.002994E+05 -1.223910E+05 -6.453809E+04  1.523698E+04  3.388132E-10  0.000000E+00
         2  14 -2.073582E+05 -1.176623E+05 -6.500411E+04  2.412360E+04  1.016440E-09  0.000000E+00
         2  15 -2.148022E+05 -1.128395E+05 -6.552834E+04  3.307436E+04  1.270549E-10 -3.388132E-10
         2  16 -2.185589E+05 -1.301440E+05 -6.974058E+04  2.341438E+04  0.000000E+00  1.016440E-09
         2  17 -2.263735E+05 -1.243831E+05 -7.015132E+04  3.277219E+04  8.470329E-11 -6.776264E-10
         2  18 -2.345627E+05 -1.183222E+05 -7.057699E+04  4.241147E+04  1.270549E-10  0.000000E+00
         2  19 -1.822680E+05 -1.165569E+05 -5.976499E+04  7.738926E+03  1.694066E-10  2.371692E-09
         2  20 -1.885894E+05 -1.132870E+05 -6.037527E+04  1.615351E+04 -1.524659E-09  8.809143E-09
         2  21 -1.953158E+05 -1.102300E+05 -6.110916E+04  2.440929E+04 -2.054055E-09  1.694066E-10
         2  22 -2.002994E+05 -1.223910E+05 -6.453809E+04  1.523698E+04 -6.776264E-10 -2.710505E-09
         2  23 -2.073582E+05 -1.176623E+05 -6.500411E+04  2.412360E+04  1.016440E-09 -6.776264E-09
         2  24 -2.148022E+05 -1.128395E+05 -6.552834E+04  3.307436E+04 -4.235165E-10  4.912791E-09
         2  25 -2.185589E+05 -1.301440E+05 -6.974058E+04  2.341438E+04 -1.355253E-09  8.131516E-09
         2  26 -2.263735E+05 -1.243831E+05 -7.015132E+04  3.277219E+04 -3.388132E-09  0.000000E+00
         2  27 -2.345627E+05 -1.183222E+05 -7.057699E+04  4.241147E+04  0.000000E+00  3.388132E-10
         3   1 -2.299106E+05 -1.347870E+05 -7.293952E+04  2.911899E+04  1.016440E-09  4.743385E-09
         3   2 -2.360142E+05 -1.270914E+05 -7.262113E+04  3.972115E+04 -1.694066E-09 -2.371692E-09
         3   3 -2.480191E+05 -1.217317E+05 -7.395015E+04  4.861186E+04  2.032879E-09 -1.346782E-08
         3   4 -2.463292E+05 -1.446661E+05 -7.819905E+04  3.859692E+04  2.710505E-09 -9.486769E-09
         3   5 -2.562140E+05 -1.352808E+05 -7.829897E+04  5.021068E+04  0.000000E+00 -2.032879E-09
         3   6 -2.719195E+05 -1.278374E+05 -7.995138E+04  6.053022E+04 -1.439956E-09 -2.879912E-09
         3   7 -2.620403E+05 -1.545255E+05 -8.331317E+04  4.979200E+04  1.355253E-09 -8.131516E-09
         3   8 -2.753755E+05 -1.437550E+05 -8.382611E+04  6.247587E+04  0.000000E+00 -4.065758E-09
         3   9 -2.943443E+05 -1.346010E+05 -8.578906E+04  7.428875E+04  4.235165E-09 -5.082198E-09
         3  10 -2.299106E+05 -1.347870E+05 -7.293952E+04  2.911899E+04  0.000000E+00  3.388132E-10
         3  11 -2.360142E+05 -1.270914E+05 -7.262113E+04  3.972115E+04  8.470329E-11  1.016440E-09
         3  12 -2.480191E+05 -1.217317E+05 -7.395015E+04  4.861186E+04  3.176374E-10  8.893846E-10
         3  13 -2.463292E+05 -1.446661E+05 -7.819905E+04  3.859692E+04 -3.388132E-10  1.355253E-09
         3  14 -2.562140E+05 -1.352808E+05 -7.829897E+04  5.021068E+04 -6.776264E-10 -6.776264E-10
         3  15 -2.719195E+05 -1.278374E+05 -7.995138E+04  6.053022E+04 -9.317362E-10  5.082198E-10
         3  16 -2.620403E+05 -1.545255E+05 -8.331317E+04  4.979200E+04  0.000000E+00 -3.388132E-10
         3  17 -2.753755E+05 -1.437550E+05 -8.382611E+04  6.247587E+04  9.317362E-10  6.776264E-10
         3  18 -2.943443E+05 -1.346010E+05 -8.578906E+04  7.428875E+04 -1.270549E-10 -2.541099E-10
         3  19 -2.299106E+05 -1.347870E+05 -7.293952E+04  2.911899E+04 -2.371692E-09 -4.743385E-09
         3  20 -2.360142E+05 -1.270914E+05 -7.262113E+04  3.972115E+04  1.694066E-09  2.371692E-09
         3  21 -2.480191E+05 -1.217317E+05 -7.395015E+04  4.861186E+04 -6.776264E-10  8.046813E-09
         3  22 -2.463292E+05 -1.446661E+05 -7.819905E+04  3.859692E+04  1.355253E-09  4.065758E-09
         3  23 -2.562140E+05 -1.352808E+05 -7.829897E+04  5.021068E+04 -2.710505E-09 -6.776264E-10
         3  24 -2.719195E+05 -1.278374E+05 -7.995138E+04  6.053022E+04  8.470329E-11  1.694066E-10
         3  25 -2.620403E+05 -1.545255E+05 -8.331317E+04  4.979200E+04  1.355253E-09  2.710505E-09
         3  26 -2.753755E+05 -1.437550E+05 -8.382611E+04  6.247587E+04 -2.710505E-09  1.355253E-09
         3  27 -2.943443E+05 -1.346010E+05 -8.578906E+04  7.428875E+04 -2.879912E-09  2.371692E-09
         4   1 -2.297895E+05 -1.397409E+05 -7.390608E+04 -9.259962E+02  9.317362E-10  1.490778E-08
         4   2 -2.230693E+05 -1.379482E+05 -7.220351E+04  1.050625E+04 -6.776264E-10 -2.541099E-09
         4   3 -2.271042E+05 -1.389185E+05 -7.320453E+04  2.027496E+04 -2.435220E-10  1.211257E-08
         4   4 -2.457627E+05 -1.517090E+05 -7.949434E+04  1.009485E+03  6.776264E-10 -1.084202E-08
         4   5 -2.392302E+05 -1.490678E+05 -7.765962E+04  1.621634E+04  1.355253E-09 -2.032879E-09
         4   6 -2.421228E+05 -1.488018E+05 -7.818491E+04  3.024447E+04  1.016440E-09 -1.694066E-10
         4   7 -2.618777E+05 -1.642316E+05 -8.522188E+04  3.801746E+03  6.776264E-10  2.710505E-09
         4   8 -2.554844E+05 -1.608424E+05 -8.326535E+04  2.240907E+04  1.016440E-09 -4.065758E-09
         4   9 -2.573343E+05 -1.595001E+05 -8.336687E+04  4.021258E+04  2.117582E-09 -8.131516E-09
         4  10 -2.297895E+05 -1.397409E+05 -7.390608E+04 -9.259962E+02 -1.694066E-10  0.000000E+00
         4  11 -2.230693E+05 -1.379482E+05 -7.220351E+04  1.050625E+04 -4.235165E-10  6.776264E-10
         4  12 -2.271042E+05 -1.389185E+05 -7.320453E+04  2.027496E+04 -3.176374E-10 -1.185846E-09
         4  13 -2.457627E+05 -1.517090E+05 -7.949434E+04  1.009485E+03  3.388132E-10 -1.355253E-09
         4  14 -2.392302E+05 -1.490678E+05 -7.765962E+04  1.621634E+04 -1.694066E-10 -6.776264E-10
         4  15 -2.421228E+05 -1.488018E+05 -7.818491E+04  3.024447E+04 -6.352747E-10  3.388132E-10
         4  16 -2.618777E+05 -1.642316E+05 -8.522188E+04  3.801746E+03 -1.694066E-10 -3.388132E-10
         4  17 -2.554844E+05 -1.608424E+05 -8.326535E+04  2.240907E+04 -3.388132E-10  1.016440E-09
         4  18 -2.573343E+05 -1.595001E+05 -8.336687E+04  4.021258E+04  4.235165E-11 -2.117582E-10
         4  19 -2.297895E+05 -1.397409E+05 -7.390608E+04 -9.259962E+02 -2.286989E-09  6.776264E-09
         4  20 -2.230693E+05 -1.379482E+05 -7.220351E+04  1.050625E+04  6.776264E-10  2.541099E-09
         4  21 -2.271042E+05 -1.389185E+05 -7.320453E+04  2.027496E+04 -1.111731E-09 -1.270549E-09
         4  22 -2.457627E+05 -1.517090E+05 -7.949434E+04  1.009485E+03  6.776264E-10  1.084202E-08
         4  23 -2.392302E+05 -1.490678E+05 -7.765962E+04  1.621634E+04 -1.355253E-09 -3.388132E-09
         4  24 -2.421228E+05 -1.488018E+05 -7.818491E+04  3.024447E+04  3.388132E-10  5.590417E-09
         4  25 -2.618777E+05 -1.642316E+05 -8.522188E+04  3.801746E+03 -6.776264E-10  2.710505E-09
         4  26 -2.554844E+05 -1.608424E+05 -8.326535E+04  2.240907E+04 -1.016440E-09  4.065758E-09
         4  27 -2.573343E+05 -1.595001E+05 -8.336687E+04  4.021258E+04 -2.117582E-09  5.421011E-09
         5   1 -4.783894E+05 -2.010249E+05 -1.358829E+05  1.666626E+05 -3.811648E-10  1.397604E-09
         5   2 -4.666588E+05 -2.169545E+05 -1.367227E+05  1.659335E+05  3.811648E-10  0.000000E+00
         5   3 -4.559664E+05 -2.334130E+05 -1.378759E+05  1.665265E+05 -1.747005E-10 -1.715242E-09
         5   4 -5.120371E+05 -1.981719E+05 -1.420418E+05  1.707287E+05  6.776264E-10  0.000000E+00
         5   5 -4.990487E+05 -2.152477E+05 -1.428593E+05  1.726689E+05  0.000000E+00  2.541099E-10
         5   6 -4.870236E+05 -2.327547E+05 -1.439557E+05  1.757548E+05  5.929231E-10 -5.082198E-10
         5   7 -5.393182E+05 -1.939911E+05 -1.466618E+05  1.748845E+05  3.388132E-10 -3.388132E-10
         5   8 -5.254812E+05 -2.122682E+05 -1.475499E+05  1.794251E+05  6.776264E-10 -5.082198E-10
         5   9 -5.125206E+05 -2.308820E+05 -1.486805E+05  1.849472E+05 -8.470329E-10 -4.658681E-10
         5  10 -4.783894E+05 -2.010249E+05 -1.358829E+05  1.666626E+05  0.000000E+00  0.000000E+00
         5  11 -4.666588E+05 -2.169545E+05 -1.367227E+05  1.659335E+05  1.694066E-10 -1.694066E-10
         5  12 -4.559664E+05 -2.334130E+05 -1.378759E+05  1.665265E+05 -5.293956E-11 -6.352747E-11
         5  13 -5.120371E+05 -1.981719E+05 -1.420418E+05  1.707287E+05 -1.694066E-10  1.694066E-10
         5  14 -4.990487E+05 -2.152477E+05 -1.428593E+05  1.726689E+05 -8.470329E-11  1.694066E-10
         5  15 -4.870236E+05 -2.327547E+05 -1.439557E+05  1.757548E+05 -8.470329E-11  1.058791E-10
         5  16 -5.393182E+05 -1.939911E+05 -1.466618E+05  1.748845E+05  8.470329E-11  0.000000E+00
         5  17 -5.254812E+05 -2.122682E+05 -1.475499E+05  1.794251E+05 -2.117582E-10  3.388132E-10
         5  18 -5.125206E+05 -2.308820E+05 -1.486805E+05  1.849472E+05  3.176374E-11 -1.376429E-10
         5  19 -4.783894E+05 -2.010249E+05 -1.358829E+05  1.666626E+05  3.811648E-10 -7.199780E-10
         5  20 -4.666588E+05 -2.169545E+05 -1.367227E+05  1.659335E+05 -3.811648E-10 -6.776264E-10
         5  21 -4.559664E+05 -2.334130E+05 -1.378759E+05  1.665265E+05 -5.029258E-10  3.599890E-10
         5  22 -5.120371E+05 -1.981719E+05 -1.420418E+05  1.707287E+05  0.000000E+00  0.000000E+00
         5  23 -4.990487E+05 -2.152477E+05 -1.428593E+05  1.726689E+05 -1.355253E-09  1.101143E-09
         5  24 -4.870236E+05 -2.327547E+05 -1.439557E+05  1.757548E+05  8.470329E-11  5.082198E-10
         5  25 -5.393182E+05 -1.939911E+05 -1.466618E+05  1.748845E+05  3.388132E-10  3.388132E-10
         5  26 -5.254812E+05 -2.122682E+05 -1.475499E+05  1.794251E+05  0.000000E+00  5.082198E-10
         5  27 -5.125206E+05 -2.308820E+05 -1.486805E+05  1.849472E+05 -5.082198E-10 -2.117582E-10
         6   1 -4.504673E+05 -2.429869E+05 -1.386908E+05  1.671121E+05  2.541099E-10  8.470329E-11
         6   2 -4.454952E+05 -2.566644E+05 -1.404319E+05  1.703991E+05  1.694066E-09  6.352747E-10
         6   3 -4.400602E+05 -2.669383E+05 -1.413997E+05  1.738706E+05 -2.117582E-11 -9.846758E-10
         6   4 -4.804819E+05 -2.430976E+05 -1.447159E+05  1.785196E+05  1.016440E-09 -1.355253E-09
         6   5 -4.767896E+05 -2.593722E+05 -1.472324E+05  1.865452E+05 -1.694066E-10  5.082198E-10
         6   6 -4.725845E+05 -2.723081E+05 -1.489785E+05  1.946018E+05  1.058791E-09 -7.199780E-10
         6   7 -5.033569E+05 -2.418744E+05 -1.490463E+05  1.892330E+05  1.355253E-09 -2.032879E-09
         6   8 -5.012780E+05 -2.607753E+05 -1.524107E+05  2.018732E+05 -3.388132E-10 -2.032879E-09
         6   9 -4.986266E+05 -2.763980E+05 -1.550049E+05  2.144034E+05  0.000000E+00  1.778769E-09
         6  10 -4.504673E+05 -2.429869E+05 -1.386908E+05  1.671121E+05  1.694066E-10  8.470329E-11
         6  11 -4.454952E+05 -2.566644E+05 -1.404319E+05  1.703991E+05 -1.694066E-10  4.235165E-11
         6  12 -4.400602E+05 -2.669383E+05 -1.413997E+05  1.738706E+05 -2.858736E-10  2.011703E-10
         6  13 -4.804819E+05 -2.430976E+05 -1.447159E+05  1.785196E+05  0.000000E+00  1.694066E-10
         6  14 -4.767896E+05 -2.593722E+05 -1.472324E+05  1.865452E+05 -1.694066E-10  8.470329E-10
         6  15 -4.725845E+05 -2.723081E+05 -1.489785E+05  1.946018E+05  2.541099E-10  4.235165E-11
         6  16 -5.033569E+05 -2.418744E+05 -1.490463E+05  1.892330E+05 -3.388132E-10  1.694066E-10
         6  17 -5.012780E+05 -2.607753E+05 -1.524107E+05  2.018732E+05  0.000000E+00  4.658681E-10
         6  18 -4.986266E+05 -2.763980E+05 -1.550049E+05  2.144034E+05 -5.293956E-11  6.352747E-11
         6  19 -4.504673E+05 -2.429869E+05 -1.386908E+05  1.671121E+05 -2.541099E-10 -8.470329E-11
         6  20 -4.454952E+05 -2.566644E+05 -1.404319E+05  1.703991E+05 -3.049319E-09 -6.352747E-10
         6  21 -4.400602E+05 -2.669383E+05 -1.413997E+05  1.738706E+05  1.376429E-09  9.846758E-10
         6  22 -4.804819E+05 -2.430976E+05 -1.447159E+05  1.785196E+05 -2.371692E-09  6.776264E-10
         6  23 -4.767896E+05 -2.593722E+05 -1.472324E+05  1.865452E+05  1.694066E-10  8.470329E-10
         6  24 -4.725845E+05 -2.723081E+05 -1.489785E+05  1.946018E+05 -2.414044E-09 -6.352747E-10
         6  25 -5.033569E+05 -2.418744E+05 -1.490463E+05  1.892330E+05 -1.355253E-09 -6.776264E-10
         6  26 -5.012780E+05 -2.607753E+05 -1.524107E+05  2.018732E+05  3.388132E-10  1.355253E-09
         6  27 -4.986266E+05 -2.763980E+05 -1.550049E+05  2.144034E+05  0.000000E+00  2.286989E-09
         7   1 -5.158599E+05 -2.445150E+05 -1.520750E+05  1.958481E+05  2.202286E-09 -2.541099E-10
         7   2 -5.126408E+05 -2.634050E+05 -1.552092E+05  2.112640E+05  1.694066E-09 -4.658681E-10
         7   3 -5.115666E+05 -2.814435E+05 -1.586020E+05  2.292557E+05 -9.529121E-10  1.556423E-09
         7   4 -5.318765E+05 -2.569223E+05 -1.577597E+05  2.114933E+05  0.000000E+00 -3.388132E-10
         7   5 -5.283411E+05 -2.816057E+05 -1.619894E+05  2.359215E+05 -1.016440E-09 -5.082198E-10
         7   6 -5.266871E+05 -3.052327E+05 -1.663840E+05  2.624946E+05 -5.929231E-10 -1.228198E-09
         7   7 -5.297613E+05 -2.657138E+05 -1.590950E+05  2.259434E+05 -2.032879E-09  1.355253E-09
         7   8 -5.268602E+05 -2.962756E+05 -1.646272E+05  2.592100E+05  3.388132E-10  1.694066E-09
         7   9 -5.255565E+05 -3.255826E+05 -1.702278E+05  2.942173E+05  6.776264E-10  1.694066E-09
         7  10 -5.158599E+05 -2.445150E+05 -1.520750E+05  1.958481E+05  0.000000E+00  0.000000E+00
         7  11 -5.126408E+05 -2.634050E+05 -1.552092E+05  2.112640E+05  0.000000E+00 -4.235165E-11
         7  12 -5.115666E+05 -2.814435E+05 -1.586020E+05  2.292557E+05 -2.646978E-10  1.058791E-10
         7  13 -5.318765E+05 -2.569223E+05 -1.577597E+05  2.114933E+05  0.000000E+00 -5.082198E-10
         7  14 -5.283411E+05 -2.816057E+05 -1.619894E+05  2.359215E+05 -1.694066E-10 -8.470329E-11
         7  15 -5.266871E+05 -3.052327E+05 -1.663840E+05  2.624946E+05 -8.470329E-11 -2.541099E-10
         7  16 -5.297613E+05 -2.657138E+05 -1.590950E+05  2.259434E+05  0.000000E+00  0.000000E+00
         7  17 -5.268602E+05 -2.962756E+05 -1.646272E+05  2.592100E+05 -8.470329E-11  4.235165E-11
         7  18 -5.255565E+05 -3.255826E+05 -1.702278E+05  2.942173E+05 -1.588187E-10 -3.176374E-11
         7  19 -5.158599E+05 -2.445150E+05 -1.520750E+05  1.958481E+05 -1.524659E-09 -4.235165E-10
         7  20 -5.126408E+05 -2.634050E+05 -1.552092E+05  2.112640E+05 -3.388132E-10  4.658681E-10
         7  21 -5.115666E+05 -2.814435E+05 -1.586020E+05  2.292557E+05  2.308165E-09 -2.011703E-10
         7  22 -5.318765E+05 -2.569223E+05 -1.577597E+05  2.114933E+05 -1.355253E-09  1.016440E-09
         7  23 -5.283411E+05 -2.816057E+05 -1.619894E+05  2.359215E+05  1.016440E-09 -8.470329E-10
         7  24 -5.266871E+05 -3.052327E+05 -1.663840E+05  2.624946E+05 -7.623297E-10 -1.270549E-10
         7  25 -5.297613E+05 -2.657138E+05 -1.590950E+05  2.259434E+05  6.776264E-10  0.000000E+00
         7  26 -5.268602E+05 -2.962756E+05 -1.646272E+05  2.592100E+05  3.388132E-10 -3.388132E-10
         7  27 -5.255565E+05 -3.255826E+05 -1.702278E+05  2.942173E+05 -6.776264E-10  3.388132E-10
         8   1 -5.527067E+05 -1.928435E+05 -1.491101E+05  1.760189E+05  5.929231E-10  4.235165E-10
         8   2 -5.364698E+05 -2.107009E+05 -1.494341E+05  1.814059E+05  5.082198E-10 -5.929231E-10
         8   3 -5.235285E+05 -2.321633E+05 -1.511384E+05  1.899804E+05  4.870439E-10 -3.335192E-10
         8   4 -5.705618E+05 -1.952033E+05 -1.531530E+05  1.788062E+05  1.694066E-10 -3.388132E-10
         8   5 -5.516670E+05 -2.165440E+05 -1.536422E+05  1.886735E+05  0.000000E+00  5.082198E-10
         8   6 -5.358258E+05 -2.411310E+05 -1.553914E+05  2.013740E+05 -9.740879E-10 -6.776264E-10
         8   7 -5.768852E+05 -1.953697E+05 -1.544510E+05  1.813900E+05  0.000000E+00  0.000000E+00
         8   8 -5.560710E+05 -2.202409E+05 -1.552624E+05  1.956638E+05  0.000000E+00  0.000000E+00
         8   9 -5.380537E+05 -2.480162E+05 -1.572140E+05  2.124366E+05 -5.082198E-10  1.185846E-09
         8  10 -5.527067E+05 -1.928435E+05 -1.491101E+05  1.760189E+05  0.000000E+00  0.000000E+00
         8  11 -5.364698E+05 -2.107009E+05 -1.494341E+05  1.814059E+05  2.117582E-10  2.117582E-11
         8  12 -5.235285E+05 -2.321633E+05 -1.511384E+05  1.899804E+05  3.176374E-11  7.940934E-11
         8  13 -5.705618E+05 -1.952033E+05 -1.531530E+05  1.788062E+05  1.694066E-10 -1.694066E-10
         8  14 -5.516670E+05 -2.165440E+05 -1.536422E+05  1.886735E+05  8.470329E-11  4.235165E-10
         8  15 -5.358258E+05 -2.411310E+05 -1.553914E+05  2.013740E+05  6.352747E-11 -2.117582E-10
         8  16 -5.768852E+05 -1.953697E+05 -1.544510E+05  1.813900E+05  8.470329E-11 -4.235165E-11
         8  17 -5.560710E+05 -2.202409E+05 -1.552624E+05  1.956638E+05  4.235165E-11 -6.352747E-11
         8  18 -5.380537E+05 -2.480162E+05 -1.572140E+05  2.124366E+05 -4.235165E-11  7.411538E-11
         8  19 -5.527067E+05 -1.928435E+05 -1.491101E+05  1.760189E+05  8.470329E-11 -4.235165E-10
         8  20 -5.364698E+05 -2.107009E+05 -1.494341E+05  1.814059E+05 -5.082198E-10  1.270549E-09
         8  21 -5.235285E+05 -2.321633E+05 -1.511384E+05  1.899804E+05 -4.870439E-10  3.335192E-10
         8  22 -5.705618E+05 -1.952033E+05 -1.531530E+05  1.788062E+05 -1.694066E-10 -3.388132E-10
         8  23 -5.516670E+05 -2.165440E+05 -1.536422E+05  1.886735E+05  1.355253E-09  1.694066E-10
         8  24 -5.358258E+05 -2.411310E+05 -1.553914E+05  2.013740E+05 -3.811648E-10  2.032879E-09
         8  25 -5.768852E+05 -1.953697E+05 -1.544510E+05  1.813900E+05 -6.776264E-10  0.000000E+00
         8  26 -5.560710E+05 -2.202409E+05 -1.552624E+05  1.956638E+05  0.000000E+00  0.000000E+00
         8  27 -5.380537E+05 -2.480162E+05 -1.572140E+05  2.124366E+05 -1.694066E-10 -1.185846E-09
         9   1 -5.917801E+05 -1.927476E+05 -1.569055E+05  1.810256E+05  6.988022E-10  4.023406E-10
         9   2 -5.620152E+05 -2.120543E+05 -1.548139E+05  1.889967E+05  1.376429E-10  3.917527E-10
         9   3 -5.394802E+05 -2.354748E+05 -1.549910E+05  2.002683E+05 -8.999725E-10  8.417390E-10
         9   4 -5.921319E+05 -1.855801E+05 -1.555424E+05  1.771520E+05  9.317362E-10  1.694066E-10
         9   5 -5.553442E+05 -2.050240E+05 -1.520736E+05  1.828771E+05 -2.541099E-10 -1.270549E-10
         9   6 -5.245479E+05 -2.284090E+05 -1.505914E+05  1.915359E+05  2.329341E-10 -3.388132E-10
         9   7 -5.938654E+05 -1.751605E+05 -1.538052E+05  1.744558E+05 -1.694066E-10  1.694066E-10
         9   8 -5.505964E+05 -1.945006E+05 -1.490194E+05  1.779211E+05  5.082198E-10  3.388132E-10
         9   9 -5.121798E+05 -2.175568E+05 -1.459473E+05  1.839468E+05 -2.541099E-10  0.000000E+00
         9  10 -5.917801E+05 -1.927476E+05 -1.569055E+05  1.810256E+05 -8.470329E-11  8.470329E-11
         9  11 -5.620152E+05 -2.120543E+05 -1.548139E+05  1.889967E+05  6.352747E-11 -1.482308E-10
         9  12 -5.394802E+05 -2.354748E+05 -1.549910E+05  2.002683E+05  2.117582E-11 -5.823352E-11
         9  13 -5.921319E+05 -1.855801E+05 -1.555424E+05  1.771520E+05  8.470329E-11  8.470329E-11
         9  14 -5.553442E+05 -2.050240E+05 -1.520736E+05  1.828771E+05  0.000000E+00  0.000000E+00
         9  15 -5.245479E+05 -2.284090E+05 -1.505914E+05  1.915359E+05 -6.352747E-11  1.270549E-10
         9  16 -5.938654E+05 -1.751605E+05 -1.538052E+05  1.744558E+05 -4.235165E-11  0.000000E+00
         9  17 -5.505964E+05 -1.945006E+05 -1.490194E+05  1.779211E+05 -2.117582E-11 -6.352747E-11
         9  18 -5.121798E+05 -2.175568E+05 -1.459473E+05  1.839468E+05  5.293956E-12 -3.705769E-11
         9  19 -5.917801E+05 -1.927476E+05 -1.569055E+05  1.810256E+05 -2.117582E-11 -6.352747E-11
         9  20 -5.620152E+05 -2.120543E+05 -1.548139E+05  1.889967E+05 -1.376429E-10 -3.917527E-10
         9  21 -5.394802E+05 -2.354748E+05 -1.549910E+05  2.002683E+05 -4.552802E-10 -5.029258E-10
         9  22 -5.921319E+05 -1.855801E+05 -1.555424E+05  1.771520E+05 -2.541099E-10 -1.694066E-10
         9  23 -5.553442E+05 -2.050240E+05 -1.520736E+05  1.828771E+05  2.541099E-10  1.270549E-10
         9  24 -5.245479E+05 -2.284090E+05 -1.505914E+05  1.915359E+05  4.446923E-10 -3.388132E-10
         9  25 -5.938654E+05 -1.751605E+05 -1.538052E+05  1.744558E+05  1.694066E-10 -1.694066E-10
         9  26 -5.505964E+05 -1.945006E+05 -1.490194E+05  1.779211E+05  1.694066E-10  0.000000E+00
         9  27 -5.121798E+05 -2.175568E+05 -1.459473E+05  1.839468E+05  9.317362E-10  0.000000E+00
        10   1 -5.201295E+05 -2.588454E+05 -1.557950E+05  2.048874E+05 -8.893846E-10 -2.117582E-11
        10   2 -4.655192E+05 -3.016611E+05 -1.534361E+05  2.345973E+05 -7.835055E-10 -7.411538E-10
        10   3 -4.519678E+05 -3.728217E+05 -1.649579E+05  2.879980E+05 -8.417390E-10  9.926167E-10
        10   4 -5.029957E+05 -2.485985E+05 -1.503188E+05  1.955802E+05 -1.863472E-09  5.929231E-10
        10   5 -4.304739E+05 -3.036688E+05 -1.468285E+05  2.161047E+05 -1.694066E-10  4.235165E-10
        10   6 -3.878582E+05 -3.857632E+05 -1.547243E+05  2.568852E+05 -2.011703E-09  5.823352E-10
        10   7 -4.862376E+05 -2.331744E+05 -1.438824E+05  1.880123E+05 -3.388132E-10  6.776264E-10
        10   8 -3.964071E+05 -2.959395E+05 -1.384693E+05  1.970361E+05 -8.470329E-10  5.082198E-10
        10   9 -3.210230E+05 -3.791353E+05 -1.400317E+05  2.188873E+05 -5.082198E-10  1.334077E-09
        10  10 -5.201295E+05 -2.588454E+05 -1.557950E+05  2.048874E+05  1.270549E-10  4.235165E-11
        10  11 -4.655192E+05 -3.016611E+05 -1.534361E+05  2.345973E+05  0.000000E+00  4.235165E-11
        10  12 -4.519678E+05 -3.728217E+05 -1.649579E+05  2.879980E+05  4.235165E-11 -5.823352E-11
        10  13 -5.029957E+05 -2.485985E+05 -1.503188E+05  1.955802E+05  0.000000E+00  8.470329E-11
        10  14 -4.304739E+05 -3.036688E+05 -1.468285E+05  2.161047E+05  1.694066E-10 -2.117582E-10
        10  15 -3.878582E+05 -3.857632E+05 -1.547243E+05  2.568852E+05 -6.352747E-11  8.470329E-11
        10  16 -4.862376E+05 -2.331744E+05 -1.438824E+05  1.880123E+05 -1.270549E-10  4.235165E-11
        10  17 -3.964071E+05 -2.959395E+05 -1.384693E+05  1.970361E+05  4.235165E-11 -8.470329E-11
        10  18 -3.210230E+05 -3.791353E+05 -1.400317E+05  2.188873E+05  3.176374E-11 -1.058791E-11
        10  19 -5.201295E+05 -2.588454E+05 -1.557950E+05  2.048874E+05  8.893846E-10 -6.564505E-10
        10  20 -4.655192E+05 -3.016611E+05 -1.534361E+05  2.345973E+05  7.835055E-10  4.023406E-10
        10  21 -4.519678E+05 -3.728217E+05 -1.649579E+05  2.879980E+05  1.519365E-09 -6.538036E-10
        10  22 -5.029957E+05 -2.485985E+05 -1.503188E+05  1.955802E+05  1.694066E-10 -5.929231E-10
        10  23 -4.304739E+05 -3.036688E+05 -1.468285E+05  2.161047E+05  1.694066E-10  5.929231E-10
        10  24 -3.878582E+05 -3.857632E+05 -1.547243E+05  2.568852E+05  2.350516E-09 -9.211483E-10
        10  25 -4.862376E+05 -2.331744E+05 -1.438824E+05  1.880123E+05  1.016440E-09 -3.388132E-10
        10  26 -3.964071E+05 -2.959395E+05 -1.384693E+05  1.970361E+05  8.470329E-10 -5.082198E-10
        10  27 -3.210230E+05 -3.791353E+05 -1.400317E+05  2.188873E+05  1.185846E-09 -9.952637E-10
        11   1 -4.682365E+05 -2.257487E+05 -1.387970E+05  1.845528E+05 -6.140989E-10  2.435220E-10
        11   2 -3.742028E+05 -2.901754E+05 -1.328756E+05  1.868535E+05 -1.323489E-09  1.164670E-09
        11   3 -2.656143E+05 -3.565724E+05 -1.244374E+05  1.876852E+05 -1.447897E-09  1.653038E-09
        11   4 -4.115535E+05 -2.098819E+05 -1.242871E+05  1.717472E+05 -8.470329E-10  2.541099E-10
        11   5 -3.191712E+05 -2.691917E+05 -1.176726E+05  1.606301E+05  1.270549E-10 -4.235165E-11
        11   6 -2.004608E+05 -3.186819E+05 -1.038285E+05  1.390673E+05 -8.046813E-10  1.037615E-09
        11   7 -3.681731E+05 -1.923708E+05 -1.121088E+05  1.580476E+05 -5.082198E-10  5.929231E-10
        11   8 -2.817821E+05 -2.430968E+05 -1.049758E+05  1.342723E+05 -7.623297E-10  4.235165E-10
        11   9 -1.621218E+05 -2.709819E+05 -8.662074E+04  9.222260E+04 -1.185846E-09  1.027027E-09
        11  10 -4.682365E+05 -2.257487E+05 -1.387970E+05  1.845528E+05  4.235165E-11  2.117582E-11
        11  11 -3.742028E+05 -2.901754E+05 -1.328756E+05  1.868535E+05  6.352747E-11  2.117582E-11
        11  12 -2.656143E+05 -3.565724E+05 -1.244374E+05  1.876852E+05  5.293956E-11 -2.382280E-11
        11  13 -4.115535E+05 -2.098819E+05 -1.242871E+05  1.717472E+05  0.000000E+00  4.235165E-11
        11  14 -3.191712E+05 -2.691917E+05 -1.176726E+05  1.606301E+05  0.000000E+00 -4.235165E-11
        11  15 -2.004608E+05 -3.186819E+05 -1.038285E+05  1.390673E+05  2.117582E-11 -5.293956E-11
        11  16 -3.681731E+05 -1.923708E+05 -1.121088E+05  1.580476E+05 -2.117582E-11  2.117582E-11
        11  17 -2.817821E+05 -2.430968E+05 -1.049758E+05  1.342723E+05  8.470329E-11  1.058791E-11
        11  18 -1.621218E+05 -2.709819E+05 -8.662074E+04  9.222260E+04  3.176374E-11 -3.441071E-11
        11  19 -4.682365E+05 -2.257487E+05 -1.387970E+05  1.845528E+05  2.752857E-10 -5.823352E-10
        11  20 -3.742028E+05 -2.901754E+05 -1.328756E+05  1.868535E+05  1.662302E-09 -4.870439E-10
        11  21 -2.656143E+05 -3.565724E+05 -1.244374E+05  1.876852E+05  1.447897E-09 -1.653038E-09
        11  22 -4.115535E+05 -2.098819E+05 -1.242871E+05  1.717472E+05  1.694066E-10  8.470329E-11
        11  23 -3.191712E+05 -2.691917E+05 -1.176726E+05  1.606301E+05 -1.270549E-10  4.235165E-11
        11  24 -2.004608E+05 -3.186819E+05 -1.038285E+05  1.390673E+05  1.143494E-09 -1.037615E-09
        11  25 -3.681731E+05 -1.923708E+05 -1.121088E+05  1.580476E+05  1.016440E-09 -4.235165E-10
        11  26 -2.817821E+05 -2.430968E+05 -1.049758E+05  1.342723E+05  1.101143E-09 -4.235165E-10
        11  27 -1.621218E+05 -2.709819E+05 -8.662074E+04  9.222260E+04  1.185846E-09 -1.196434E-09
        12   1 -5.900092E+05 -1.662487E+05 -1.512516E+05  1.724619E+05 -1.508777E-10  5.029258E-11
        12   2 -5.395532E+05 -1.837841E+05 -1.446675E+05  1.724720E+05  2.011703E-10  1.694066E-10
        12   3 -4.957642E+05 -2.084241E+05 -1.408377E+05  1.768464E+05 -2.117582E-11  2.011703E-10
        12   4 -5.666138E+05 -1.549412E+05 -1.443110E+05  1.714991E+05 -1.270549E-10  8.470329E-11
        12   5 -5.079758E+05 -1.724151E+05 -1.360782E+05  1.671107E+05  3.811648E-10 -2.117582E-10