    1C
    1UUSER                                                              
    1UDATE              03.april.2020                                   
    1UTIME              21:10:22                                        
    1UHOST                                                              
    1UPGM               CalculiX                                        
    1UVERSION           Version 2.16                             
    1UCOMPILETIME       Mo 25. Nov 18:56:47 CET 2019                    
    1UDIR                                                               
    1UDBN                                                               
    1UMAT    1CONCRETE                                                  
    2C                           367                                     1
 -1         1 0.00000E+00 0.00000E+00 0.00000E+00
 -1         2 2.43840E+00 0.00000E+00 0.00000E+00
 -1         3 6.70560E+00 3.65760E+00 0.00000E+00
 -1         4 3.32232E+01 4.12047E+00 0.00000E+00
 -1         5 3.50520E+01 4.15239E+00 0.00000E+00
 -1         6 3.50520E+01 8.41959E+00 0.00000E+00
 -1         8 6.70560E+00 2.22504E+01 0.00000E+00
 -1        10 4.26720E+00 2.98704E+01 0.00000E+00
 -1        11 6.09600E-01 3.35280E+01 0.00000E+00
 -1        12 0.00000E+00 3.35280E+01 0.00000E+00
 -1        13 6.09600E-01 0.00000E+00 0.00000E+00
 -1        14 1.21920E+00 0.00000E+00 0.00000E+00
 -1        15 1.82880E+00 0.00000E+00 0.00000E+00
 -1        16 3.04800E-01 0.00000E+00 0.00000E+00
 -1        17 9.14400E-01 0.00000E+00 0.00000E+00
 -1        18 1.52400E+00 0.00000E+00 0.00000E+00
 -1        19 2.13360E+00 0.00000E+00 0.00000E+00
 -1        20 3.50520E+00 9.14400E-01 0.00000E+00
 -1        21 4.57200E+00 1.82880E+00 0.00000E+00
 -1        22 5.63880E+00 2.74320E+00 0.00000E+00
 -1        23 2.97180E+00 4.57200E-01 0.00000E+00
 -1        24 4.03860E+00 1.37160E+00 0.00000E+00
 -1        25 5.10540E+00 2.28600E+00 0.00000E+00
 -1        26 6.17220E+00 3.20040E+00 0.00000E+00
 -1        27 1.00203E+01 3.71546E+00 0.00000E+00
 -1        28 1.33350E+01 3.77332E+00 0.00000E+00
 -1        29 1.66497E+01 3.83118E+00 0.00000E+00
 -1        30 1.99644E+01 3.88903E+00 0.00000E+00
 -1        31 2.32791E+01 3.94689E+00 0.00000E+00
 -1        32 2.65938E+01 4.00475E+00 0.00000E+00
 -1        33 2.99085E+01 4.06261E+00 0.00000E+00
 -1        34 8.36295E+00 3.68653E+00 0.00000E+00
 -1        35 1.16777E+01 3.74439E+00 0.00000E+00
 -1        36 1.49923E+01 3.80225E+00 0.00000E+00
 -1        37 1.83071E+01 3.86010E+00 0.00000E+00
 -1        38 2.16217E+01 3.91796E+00 0.00000E+00
 -1        39 2.49364E+01 3.97582E+00 0.00000E+00
 -1        40 2.82512E+01 4.03368E+00 0.00000E+00
 -1        41 3.15658E+01 4.09154E+00 0.00000E+00
 -1        42 3.36804E+01 4.12845E+00 0.00000E+00
 -1        43 3.41376E+01 4.13643E+00 0.00000E+00
 -1        44 3.45948E+01 4.14441E+00 0.00000E+00
 -1        45 3.34518E+01 4.12446E+00 0.00000E+00
 -1        46 3.39090E+01 4.13244E+00 0.00000E+00
 -1        47 3.43662E+01 4.14042E+00 0.00000E+00
 -1        48 3.48234E+01 4.14840E+00 0.00000E+00
 -1        49 3.50520E+01 5.21919E+00 0.00000E+00
 -1        50 3.50520E+01 6.28599E+00 0.00000E+00
 -1        51 3.50520E+01 7.35279E+00 0.00000E+00
 -1        52 3.50520E+01 4.68579E+00 0.00000E+00
 -1        53 3.50520E+01 5.75259E+00 0.00000E+00
 -1        54 3.50520E+01 6.81939E+00 0.00000E+00
 -1        55 3.50520E+01 7.88619E+00 0.00000E+00
 -1        56 3.24397E+01 8.93301E+00 0.00000E+00
 -1        57 2.98548E+01 9.57049E+00 0.00000E+00
 -1        58 2.73033E+01 1.03306E+01 0.00000E+00
 -1        59 2.47909E+01 1.12115E+01 0.00000E+00
 -1        60 2.23235E+01 1.22113E+01 0.00000E+00
 -1        61 1.99065E+01 1.33277E+01 0.00000E+00
 -1        62 1.75456E+01 1.45582E+01 0.00000E+00
 -1        63 1.52460E+01 1.58999E+01 0.00000E+00
 -1        64 1.30132E+01 1.73498E+01 0.00000E+00
 -1        65 1.08520E+01 1.89045E+01 0.00000E+00
 -1        66 8.76743E+00 2.05606E+01 0.00000E+00
 -1        67 3.37428E+01 8.66071E+00 0.00000E+00
 -1        68 3.11434E+01 9.23633E+00 0.00000E+00
 -1        69 2.85745E+01 9.93531E+00 0.00000E+00
 -1        70 2.60418E+01 1.07561E+01 0.00000E+00
 -1        71 2.35512E+01 1.16967E+01 0.00000E+00
 -1        72 2.11083E+01 1.27551E+01 0.00000E+00
 -1        73 1.87187E+01 1.39289E+01 0.00000E+00
 -1        74 1.63878E+01 1.52153E+01 0.00000E+00
 -1        75 1.41209E+01 1.66115E+01 0.00000E+00
 -1        76 1.19233E+01 1.81142E+01 0.00000E+00
 -1        77 9.79982E+00 1.97201E+01 0.00000E+00
 -1        78 7.75539E+00 2.14255E+01 0.00000E+00
 -1        79 5.38402E+00 2.38623E+01 0.00000E+00
 -1        80 4.49953E+00 2.57497E+01 0.00000E+00
 -1        81 4.10651E+00 2.77967E+01 0.00000E+00
 -1        82 5.99467E+00 2.30152E+01 0.00000E+00
 -1        83 4.88306E+00 2.47785E+01 0.00000E+00
 -1        84 4.23934E+00 2.67610E+01 0.00000E+00
 -1        85 4.10307E+00 2.88409E+01 0.00000E+00
 -1        86 3.35280E+00 3.07848E+01 0.00000E+00
 -1        87 2.43840E+00 3.16992E+01 0.00000E+00
 -1        88 1.52400E+00 3.26136E+01 0.00000E+00
 -1        89 3.81000E+00 3.03276E+01 0.00000E+00
 -1        90 2.89560E+00 3.12420E+01 0.00000E+00
 -1        91 1.98120E+00 3.21564E+01 0.00000E+00
 -1        92 1.06680E+00 3.30708E+01 0.00000E+00
 -1        93 4.57200E-01 3.35280E+01 0.00000E+00
 -1        94 3.04800E-01 3.35280E+01 0.00000E+00
 -1        95 1.52400E-01 3.35280E+01 0.00000E+00
 -1        96 5.33400E-01 3.35280E+01 0.00000E+00
 -1        97 3.81000E-01 3.35280E+01 0.00000E+00
 -1        98 2.28600E-01 3.35280E+01 0.00000E+00
 -1        99 7.62000E-02 3.35280E+01 0.00000E+00
 -1       100 0.00000E+00 3.07340E+01 0.00000E+00
 -1       101 0.00000E+00 2.79400E+01 0.00000E+00
 -1       102 0.00000E+00 2.51460E+01 0.00000E+00
 -1       103 0.00000E+00 2.23520E+01 0.00000E+00
 -1       104 0.00000E+00 1.95580E+01 0.00000E+00
 -1       105 0.00000E+00 1.67640E+01 0.00000E+00
 -1       106 0.00000E+00 1.39700E+01 0.00000E+00
 -1       107 0.00000E+00 1.11760E+01 0.00000E+00
 -1       108 0.00000E+00 8.38200E+00 0.00000E+00
 -1       109 0.00000E+00 5.58800E+00 0.00000E+00
 -1       110 0.00000E+00 2.79400E+00 0.00000E+00
 -1       111 0.00000E+00 3.21310E+01 0.00000E+00
 -1       112 0.00000E+00 2.93370E+01 0.00000E+00
 -1       113 0.00000E+00 2.65430E+01 0.00000E+00
 -1       114 0.00000E+00 2.37490E+01 0.00000E+00
 -1       115 0.00000E+00 2.09550E+01 0.00000E+00
 -1       116 0.00000E+00 1.81610E+01 0.00000E+00
 -1       117 0.00000E+00 1.53670E+01 0.00000E+00
 -1       118 0.00000E+00 1.25730E+01 0.00000E+00
 -1       119 0.00000E+00 9.77900E+00 0.00000E+00
 -1       120 0.00000E+00 6.98500E+00 0.00000E+00
 -1       121 0.00000E+00 4.19100E+00 0.00000E+00
 -1       122 0.00000E+00 1.39700E+00 0.00000E+00
 -1       123 1.15984E+01 1.18873E+01 0.00000E+00
 -1       124 4.55946E+00 1.64557E+01 0.00000E+00
 -1       125 2.03979E+00 2.18097E+00 0.00000E+00
 -1       126 1.03627E+01 7.67683E+00 0.00000E+00
 -1       127 1.66168E+01 9.45417E+00 0.00000E+00
 -1       128 4.25844E+00 4.95116E+00 0.00000E+00
 -1       129 2.02474E+01 7.84832E+00 0.00000E+00
 -1       130 6.00355E+00 1.03587E+01 0.00000E+00
 -1       131 7.16934E+00 6.80677E+00 0.00000E+00
 -1       132 5.63253E+00 1.93531E+01 0.00000E+00
 -1       133 7.70572E+00 1.76801E+01 0.00000E+00
 -1       134 1.12252E+01 1.53959E+01 0.00000E+00
 -1       135 1.34222E+01 1.38936E+01 0.00000E+00
 -1       136 1.21920E+00 3.26136E+01 0.00000E+00
 -1       137 1.21920E+00 2.98196E+01 0.00000E+00
 -1       138 2.13360E+00 2.89052E+01 0.00000E+00
 -1       139 2.27973E+00 1.94039E+01 0.00000E+00
 -1       140 2.27973E+00 1.66099E+01 0.00000E+00
 -1       141 2.27973E+00 1.38159E+01 0.00000E+00
 -1       142 3.45948E+01 5.21121E+00 0.00000E+00
 -1       143 3.41376E+01 5.20323E+00 0.00000E+00
 -1       144 1.37160E+00 3.26136E+01 0.00000E+00
 -1       145 3.15390E+01 6.84548E+00 0.00000E+00
 -1       146 2.56924E+01 7.60814E+00 0.00000E+00
 -1       147 2.86059E+01 7.19659E+00 0.00000E+00
 -1       148 8.80100E+00 1.11230E+01 0.00000E+00
 -1       149 5.28150E+00 1.34072E+01 0.00000E+00
 -1       150 8.25336E+00 1.44016E+01 0.00000E+00
 -1       151 2.24977E+00 2.40508E+01 0.00000E+00
 -1       152 3.83187E+00 2.16331E+01 0.00000E+00
 -1       153 2.05325E+00 2.64713E+01 0.00000E+00
 -1       154 1.01989E+00 3.88449E+00 0.00000E+00
 -1       155 3.30589E+00 2.00488E+00 0.00000E+00
 -1       156 4.41522E+00 3.38998E+00 0.00000E+00
 -1       157 2.12922E+00 5.26958E+00 0.00000E+00
 -1       158 2.71756E+00 3.63723E+00 0.00000E+00
 -1       159 2.25191E+01 9.52993E+00 0.00000E+00
 -1       160 2.01059E+01 5.86868E+00 0.00000E+00
 -1       161 2.28991E+01 6.73841E+00 0.00000E+00
 -1       162 1.84321E+01 8.65124E+00 0.00000E+00
 -1       163 1.49759E+01 6.61374E+00 0.00000E+00
 -1       164 1.75409E+01 6.24121E+00 0.00000E+00
 -1       165 3.00177E+00 7.97337E+00 0.00000E+00
 -1       166 2.64075E+00 1.08946E+01 0.00000E+00
 -1       167 5.71389E+00 5.87897E+00 0.00000E+00
 -1       168 6.58645E+00 8.58276E+00 0.00000E+00
 -1       169 4.35783E+00 6.92617E+00 0.00000E+00
 -1       170 1.18489E+01 5.72507E+00 0.00000E+00
 -1       171 8.76604E+00 7.24180E+00 0.00000E+00
 -1       172 6.93747E+00 5.23218E+00 0.00000E+00
 -1       173 9.39317E+00 5.47863E+00 0.00000E+00
 -1       174 1.41076E+01 1.06707E+01 0.00000E+00
 -1       175 1.82617E+01 1.13910E+01 0.00000E+00
 -1       176 1.58266E+01 1.26145E+01 0.00000E+00
 -1       177 2.03778E+01 1.04313E+01 0.00000E+00
 -1       178 1.09806E+01 9.78206E+00 0.00000E+00
 -1       179 8.78352E+00 9.18241E+00 0.00000E+00
 -1       180 1.29783E+01 8.19790E+00 0.00000E+00
 -1       181 5.67635E+00 4.31108E+00 0.00000E+00
 -1       182 1.62949E+00 1.09048E+00 0.00000E+00
 -1       183 2.56735E+00 1.00244E+00 0.00000E+00
 -1       184 8.14747E-01 1.94224E+00 0.00000E+00
 -1       185 3.32886E+01 7.06812E+00 0.00000E+00
 -1       186 7.37045E+00 1.92007E+01 0.00000E+00
 -1       187 1.25595E+01 1.55552E+01 0.00000E+00
 -1       188 8.12800E-01 3.10557E+01 0.00000E+00
 -1       189 2.23520E+00 2.98365E+01 0.00000E+00
 -1       190 1.51982E+00 1.85239E+01 0.00000E+00
 -1       191 1.51982E+00 1.47986E+01 0.00000E+00
 -1       192 3.47472E+01 4.85827E+00 0.00000E+00
 -1       193 3.41376E+01 4.84763E+00 0.00000E+00
 -1       194 1.11760E+00 3.29184E+01 0.00000E+00
 -1       195 9.14400E-01 3.29184E+01 0.00000E+00
 -1       196 3.23811E+01 5.48297E+00 0.00000E+00
 -1       197 3.00724E+01 7.02104E+00 0.00000E+00
 -1       198 2.92572E+01 5.62960E+00 0.00000E+00
 -1       199 3.06969E+01 8.20799E+00 0.00000E+00
 -1       200 2.79546E+01 8.76358E+00 0.00000E+00
 -1       201 2.52416E+01 9.40983E+00 0.00000E+00
 -1       202 2.71491E+01 7.40237E+00 0.00000E+00
 -1       203 2.61431E+01 5.80644E+00 0.00000E+00
 -1       204 7.40227E+00 1.07409E+01 0.00000E+00
 -1       205 8.52718E+00 1.27623E+01 0.00000E+00
 -1       206 6.76743E+00 1.39044E+01 0.00000E+00
 -1       207 5.64253E+00 1.18830E+01 0.00000E+00
 -1       208 1.01997E+01 1.15051E+01 0.00000E+00
 -1       209 1.14118E+01 1.36416E+01 0.00000E+00
 -1       210 9.73928E+00 1.48987E+01 0.00000E+00
 -1       211 1.10386E+01 1.71502E+01 0.00000E+00
 -1       212 9.27884E+00 1.82923E+01 0.00000E+00
 -1       213 7.97954E+00 1.60408E+01 0.00000E+00
 -1       214 6.13259E+00 1.70679E+01 0.00000E+00
 -1       215 4.92048E+00 1.49315E+01 0.00000E+00
 -1       216 5.09599E+00 1.79044E+01 0.00000E+00
 -1       217 4.73220E+00 2.04931E+01 0.00000E+00
 -1       218 3.05580E+00 2.05185E+01 0.00000E+00
 -1       219 3.41960E+00 1.79298E+01 0.00000E+00
 -1       220 6.16906E+00 2.08017E+01 0.00000E+00
 -1       221 4.60794E+00 2.27477E+01 0.00000E+00
 -1       222 3.37465E+00 2.49003E+01 0.00000E+00
 -1       223 3.04082E+00 2.28419E+01 0.00000E+00
 -1       224 1.12488E+00 2.32014E+01 0.00000E+00
 -1       225 1.13987E+00 2.08779E+01 0.00000E+00
 -1       226 3.20040E+00 2.93878E+01 0.00000E+00
 -1       227 2.09343E+00 2.76883E+01 0.00000E+00
 -1       228 3.07988E+00 2.71340E+01 0.00000E+00
 -1       229 1.06680E+00 2.84226E+01 0.00000E+00
 -1       230 1.02663E+00 2.58087E+01 0.00000E+00
 -1       231 2.15151E+00 2.52611E+01 0.00000E+00
 -1       232 5.09947E-01 4.73624E+00 0.00000E+00
 -1       233 1.86873E+00 3.76086E+00 0.00000E+00
 -1       234 2.42339E+00 4.45341E+00 0.00000E+00
 -1       235 1.06461E+00 5.42879E+00 0.00000E+00
 -1       236 1.52984E+00 3.03273E+00 0.00000E+00
 -1       237 2.67284E+00 2.09293E+00 0.00000E+00
 -1       238 3.01173E+00 2.82106E+00 0.00000E+00
 -1       239 3.93895E+00 1.91684E+00 0.00000E+00
 -1       240 4.49361E+00 2.60939E+00 0.00000E+00
 -1       241 3.56639E+00 3.51361E+00 0.00000E+00
 -1       242 4.33683E+00 4.17057E+00 0.00000E+00
 -1       243 3.19383E+00 5.11037E+00 0.00000E+00
 -1       244 2.42957E+01 7.17327E+00 0.00000E+00
 -1       245 2.30891E+01 5.34265E+00 0.00000E+00
 -1       246 2.36550E+01 1.03707E+01 0.00000E+00
 -1       247 2.27091E+01 8.13417E+00 0.00000E+00
 -1       248 2.13833E+01 8.68912E+00 0.00000E+00
 -1       249 2.01766E+01 6.85850E+00 0.00000E+00
 -1       250 2.15025E+01 6.30354E+00 0.00000E+00
 -1       251 2.00351E+01 4.87886E+00 0.00000E+00
 -1       252 1.93397E+01 8.24978E+00 0.00000E+00
 -1       253 1.79865E+01 7.44623E+00 0.00000E+00
 -1       254 1.88234E+01 6.05494E+00 0.00000E+00
 -1       255 1.75245E+01 9.05270E+00 0.00000E+00
 -1       256 1.57964E+01 8.03395E+00 0.00000E+00
 -1       257 1.62584E+01 6.42747E+00 0.00000E+00
 -1       258 1.41555E+01 5.19353E+00 0.00000E+00
 -1       259 1.70953E+01 5.03619E+00 0.00000E+00
 -1       260 3.41960E+00 1.51358E+01 0.00000E+00
 -1       261 2.46024E+00 1.23552E+01 0.00000E+00
 -1       262 3.96113E+00 1.21509E+01 0.00000E+00
 -1       263 1.13987E+00 1.24959E+01 0.00000E+00
 -1       264 1.32038E+00 9.63831E+00 0.00000E+00
 -1       265 1.50089E+00 6.78069E+00 0.00000E+00
 -1       266 2.82126E+00 9.43400E+00 0.00000E+00
 -1       267 4.50266E+00 9.16606E+00 0.00000E+00
 -1       268 3.24353E+00 6.09788E+00 0.00000E+00
 -1       269 3.67980E+00 7.44977E+00 0.00000E+00
 -1       270 4.98617E+00 5.41506E+00 0.00000E+00
 -1       271 5.03586E+00 6.40257E+00 0.00000E+00
 -1       272 6.44162E+00 6.34287E+00 0.00000E+00
 -1       273 6.87789E+00 7.69477E+00 0.00000E+00
 -1       274 5.47214E+00 7.75447E+00 0.00000E+00
 -1       275 6.29500E+00 9.47075E+00 0.00000E+00
 -1       276 9.70673E+00 4.59704E+00 0.00000E+00
 -1       277 8.16532E+00 5.35541E+00 0.00000E+00
 -1       278 6.82154E+00 4.44489E+00 0.00000E+00
 -1       279 1.25919E+01 4.74920E+00 0.00000E+00
 -1       280 1.06210E+01 5.60185E+00 0.00000E+00
 -1       281 1.11058E+01 6.70095E+00 0.00000E+00
 -1       282 9.56439E+00 7.45932E+00 0.00000E+00
 -1       283 9.07961E+00 6.36022E+00 0.00000E+00
 -1       284 7.96769E+00 7.02429E+00 0.00000E+00
 -1       285 7.05341E+00 6.01948E+00 0.00000E+00
 -1       286 1.28530E+01 1.12790E+01 0.00000E+00
 -1       287 1.49671E+01 1.16426E+01 0.00000E+00
 -1       288 1.46244E+01 1.32540E+01 0.00000E+00
 -1       289 1.25103E+01 1.28904E+01 0.00000E+00
 -1       290 1.53622E+01 1.00624E+01 0.00000E+00
 -1       291 1.74392E+01 1.04226E+01 0.00000E+00
 -1       292 1.70441E+01 1.20027E+01 0.00000E+00
 -1       293 1.90841E+01 1.23594E+01 0.00000E+00
 -1       294 1.66861E+01 1.35863E+01 0.00000E+00
 -1       295 1.43341E+01 1.48967E+01 0.00000E+00
 -1       296 2.13506E+01 1.13213E+01 0.00000E+00
 -1       297 2.14485E+01 9.98061E+00 0.00000E+00
 -1       298 1.93197E+01 1.09111E+01 0.00000E+00
 -1       299 1.94049E+01 9.54127E+00 0.00000E+00
 -1       300 7.68498E+00 8.88258E+00 0.00000E+00
 -1       301 8.79226E+00 1.01527E+01 0.00000E+00
 -1       302 8.77478E+00 8.21211E+00 0.00000E+00
 -1       303 1.06717E+01 8.72945E+00 0.00000E+00
 -1       304 9.88206E+00 9.48223E+00 0.00000E+00
 -1       305 1.12895E+01 1.08347E+01 0.00000E+00
 -1       306 1.39771E+01 7.40582E+00 0.00000E+00
 -1       307 1.24136E+01 6.96149E+00 0.00000E+00
 -1       308 1.35429E+01 9.43431E+00 0.00000E+00
 -1       309 1.19794E+01 8.98998E+00 0.00000E+00
 -1       310 5.69512E+00 5.09503E+00 0.00000E+00
 -1       311 6.30691E+00 4.77163E+00 0.00000E+00
 -1       312 5.04578E+00 3.85053E+00 0.00000E+00
 -1       313 5.65757E+00 3.52714E+00 0.00000E+00
 -1       314 2.93662E+00 1.50366E+00 0.00000E+00
 -1       315 3.03627E+00 9.58421E-01 0.00000E+00
 -1       316 1.83464E+00 1.63573E+00 0.00000E+00
 -1       317 2.09842E+00 1.04646E+00 0.00000E+00
 -1       318 1.42435E+00 5.45242E-01 0.00000E+00
 -1       319 2.19807E+00 5.01221E-01 0.00000E+00
 -1       320 1.22212E+00 1.51636E+00 0.00000E+00
 -1       321 7.12174E-01 9.71121E-01 0.00000E+00
 -1       322 9.17321E-01 2.91336E+00 0.00000E+00
 -1       323 4.07374E-01 2.36812E+00 0.00000E+00
 -1       324 3.36804E+01 4.66185E+00 0.00000E+00
 -1       325 3.37131E+01 6.13567E+00 0.00000E+00
 -1       326 3.24138E+01 6.95680E+00 0.00000E+00
 -1       327 3.45948E+01 5.74461E+00 0.00000E+00
 -1       328 3.41703E+01 7.21045E+00 0.00000E+00
 -1       329 3.28641E+01 8.00057E+00 0.00000E+00
 -1       330 8.06894E+00 1.98807E+01 0.00000E+00
 -1       331 7.53808E+00 1.84404E+01 0.00000E+00
 -1       332 6.50149E+00 1.92769E+01 0.00000E+00
 -1       333 1.27863E+01 1.64525E+01 0.00000E+00
 -1       334 1.29909E+01 1.47244E+01 0.00000E+00
 -1       335 1.18924E+01 1.54755E+01 0.00000E+00
 -1       336 1.82880E+00 3.21564E+01 0.00000E+00
 -1       337 1.01600E+00 3.18347E+01 0.00000E+00
 -1       338 1.01600E+00 3.04377E+01 0.00000E+00
 -1       339 1.82880E+00 3.07594E+01 0.00000E+00
 -1       340 6.09600E-01 3.30708E+01 0.00000E+00
 -1       341 4.06400E-01 3.08949E+01 0.00000E+00
 -1       342 6.09600E-01 2.88798E+01 0.00000E+00
 -1       343 2.18440E+00 2.93709E+01 0.00000E+00
 -1       344 1.72720E+00 2.98281E+01 0.00000E+00
 -1       345 2.79400E+00 3.03107E+01 0.00000E+00
 -1       346 1.89978E+00 1.89639E+01 0.00000E+00
 -1       347 1.89978E+00 1.75669E+01 0.00000E+00
 -1       348 3.41960E+00 1.65328E+01 0.00000E+00
 -1       349 7.59910E-01 1.90410E+01 0.00000E+00
 -1       350 1.13987E+00 1.66869E+01 0.00000E+00
 -1       351 7.59910E-01 1.43843E+01 0.00000E+00
 -1       352 1.89978E+00 1.57042E+01 0.00000E+00
 -1       353 1.89978E+00 1.43072E+01 0.00000E+00
 -1       354 3.46710E+01 4.50134E+00 0.00000E+00
 -1       355 3.46710E+01 5.03474E+00 0.00000E+00
 -1       356 3.43662E+01 4.67382E+00 0.00000E+00
 -1       357 3.48996E+01 5.03873E+00 0.00000E+00
 -1       358 3.48234E+01 5.74860E+00 0.00000E+00
 -1       359 3.41376E+01 5.02543E+00 0.00000E+00
 -1       360 3.43662E+01 5.02942E+00 0.00000E+00
 -1       361 3.39090E+01 4.48804E+00 0.00000E+00
 -1       362 1.32080E+00 3.27660E+01 0.00000E+00
 -1       363 1.24460E+00 3.27660E+01 0.00000E+00
 -1       364 1.90500E+00 3.21564E+01 0.00000E+00
 -1       365 7.87400E-01 3.32232E+01 0.00000E+00
 -1       366 8.38200E-01 3.30708E+01 0.00000E+00
 -1       367 5.33400E-01 3.32232E+01 0.00000E+00
 -1       368 1.14300E+00 3.27660E+01 0.00000E+00
 -1       369 1.06680E+00 3.27660E+01 0.00000E+00
 -3
    3C                           102                                     1
 -1         1   10    0    1
 -2         4       145       147        33       196       197       198        41
 -1         2   10    0    1
 -2       145        57        58       147       199        69       200       197
 -1         3   10    0    1
 -2       147        58        59       146       200        70       201       202
 -1         4   10    0    1
 -2        33       147       146        32       198       202       203        40
 -1         5   10    0    1
 -2       130       148       150       149       204       205       206       207
 -1         6   10    0    1
 -2       148       123       134       150       208       209       210       205
 -1         7   10    0    1
 -2       150       134        65       133       210       211       212       213
 -1         8   10    0    1
 -2       149       150       133       124       206       213       214       215
 -1         9   10    0    1
 -2       124       132       152       139       216       217       218       219
 -1        10   10    0    1
 -2       132         8        79       152       220        82       221       217
 -1        11   10    0    1
 -2       152        79        80       151       221        83       222       223
 -1        12   10    0    1
 -2       139       152       151       103       218       223       224       225
 -1        13   10    0    1
 -2        10       138       153        81       226       227       228        85
 -1        14   10    0    1
 -2       138       101       102       153       229       113       230       227
 -1        15   10    0    1
 -2       153       102       103       151       230       114       224       231
 -1        16   10    0    1
 -2        81       153       151        80       228       231       222        84
 -1        17   10    0    1
 -2       109       154       158       157       232       233       234       235
 -1        18   10    0    1
 -2       154       125       155       158       236       237       238       233
 -1        19   10    0    1
 -2       158       155        21       156       238       239       240       241
 -1        20   10    0    1
 -2       157       158       156       128       234       241       242       243
 -1        21   10    0    1
 -2        32       146       161        31       203       244       245        39
 -1        22   10    0    1
 -2       146        59       159       161       201       246       247       244
 -1        23   10    0    1
 -2       161       159       129       160       247       248       249       250
 -1        24   10    0    1
 -2        31       161       160        30       245       250       251        38
 -1        25   10    0    1
 -2       129       162       164       160       252       253       254       249
 -1        26   10    0    1
 -2       162       127       163       164       255       256       257       253
 -1        27   10    0    1
 -2       164       163        28        29       257       258        36       259
 -1        28   10    0    1
 -2       160       164        29        30       254       259        37       251
 -1        29   10    0    1
 -2       124       141       166       149       260       261       262       215
 -1        30   10    0    1
 -2       141       107       108       166       263       119       264       261
 -1        31   10    0    1
 -2       166       108       109       165       264       120       265       266
 -1        32   10    0    1
 -2       149       166       165       130       262       266       267       207
 -1        33   10    0    1
 -2       109       157       169       165       235       268       269       265
 -1        34   10    0    1
 -2       157       128       167       169       243       270       271       268
 -1        35   10    0    1
 -2       169       167       131       168       271       272       273       274
 -1        36   10    0    1
 -2       165       169       168       130       269       274       275       267
 -1        37   10    0    1
 -2         3        27       173       172        34       276       277       278
 -1        38   10    0    1
 -2        27        28       170       173        35       279       280       276
 -1        39   10    0    1
 -2       173       170       126       171       280       281       282       283
 -1        40   10    0    1
 -2       172       173       171       131       277       283       284       285
 -1        41   10    0    1
 -2       123       174       176       135       286       287       288       289
 -1        42   10    0    1
 -2       174       127       175       176       290       291       292       287
 -1        43   10    0    1
 -2       176       175        61        62       292       293        73       294
 -1        44   10    0    1
 -2       135       176        62        63       288       294        74       295
 -1        45   10    0    1
 -2        59        60       177       159        71       296       297       246
 -1        46   10    0    1
 -2        60        61       175       177        72       293       298       296
 -1        47   10    0    1
 -2       177       175       127       162       298       291       255       299
 -1        48   10    0    1
 -2       159       177       162       129       297       299       252       248
 -1        49   10    0    1
 -2       130       168       179       148       275       300       301       204
 -1        50   10    0    1
 -2       168       131       171       179       273       284       302       300
 -1        51   10    0    1
 -2       179       171       126       178       302       282       303       304
 -1        52   10    0    1
 -2       148       179       178       123       301       304       305       208
 -1        53   10    0    1
 -2        28       163       180       170       258       306       307       279
 -1        54   10    0    1
 -2       163       127       174       180       256       290       308       306
 -1        55   10    0    1
 -2       180       174       123       178       308       286       305       309
 -1        56   10    0    1
 -2       170       180       178       126       307       309       303       281
 -1        57   10    0    1
 -2       131       167       181       172       272       310       311       285
 -1        58   10    0    1
 -2       167       128       156       181       270       242       312       310
 -1        59   10    0    1
 -2       181       156        21        22       312       240        25       313
 -1        60   10    0    1
 -2       172       181        22         3       311       313        26       278
 -1        61   10    0    1
 -2        21       155       183        20       239       314       315        24
 -1        62   10    0    1
 -2       155       125       182       183       237       316       317       314
 -1        63   10    0    1
 -2       183       182        14        15       317       318        18       319
 -1        64   10    0    1
 -2        20       183        15         2       315       319        19        23
 -1        65   10    0    1
 -2        14       182       184        13       318       320       321        17
 -1        66   10    0    1
 -2       182       125       154       184       316       236       322       320
 -1        67   10    0    1
 -2       184       154       109       110       322       232       121       323
 -1        68   10    0    1
 -2        13       184       110         1       321       323       122        16
 -1        69   10    0    1
 -2         4       143       185       145       324       325       326       196
 -1        70   10    0    1
 -2       143        50        51       185       327        54       328       325
 -1        71   10    0    1
 -2       185        51         6        56       328        55        67       329
 -1        72   10    0    1
 -2       145       185        56        57       326       329        68       199
 -1        73   10    0    1
 -2        65        66       186       133        77       330       331       212
 -1        74   10    0    1
 -2        66         8       132       186        78       220       332       330
 -1        75   10    0    1
 -2       133       186       132       124       331       332       216       214
 -1        76   10    0    1
 -2        63        64       187       135        75       333       334       295
 -1        77   10    0    1
 -2        64        65       134       187        76       211       335       333
 -1        78   10    0    1
 -2       135       187       134       123       334       335       209       289
 -1        79   10    0    1
 -2        87       136       188       137       336       337       338       339
 -1        80   10    0    1
 -2       136        12       100       188       340       111       341       337
 -1        81   10    0    1
 -2       137       188       100       101       338       341       112       342
 -1        82   10    0    1
 -2       101       138       189       137       229       343       344       342
 -1        83   10    0    1
 -2       138        10        86       189       226        89       345       343
 -1        84   10    0    1
 -2       137       189        86        87       344       345        90       339
 -1        85   10    0    1
 -2       124       139       190       140       219       346       347       348
 -1        86   10    0    1
 -2       139       103       104       190       225       115       349       346
 -1        87   10    0    1
 -2       140       190       104       105       347       349       116       350
 -1        88   10    0    1
 -2       105       106       191       140       117       351       352       350
 -1        89   10    0    1
 -2       106       107       141       191       118       263       353       351
 -1        90   10    0    1
 -2       140       191       141       124       352       353       260       348
 -1        91   10    0    1
 -2        43        44       192       142        47       354       355       356
 -1        92   10    0    1
 -2        44         5        49       192        48        52       357       354
 -1        93   10    0    1
 -2       142       192        49        50       355       357        53       358
 -1        94   10    0    1
 -2        50       143       193       142       327       359       360       358
 -1        95   10    0    1
 -2       143         4        42       193       324        45       361       359
 -1        96   10    0    1