    1C
    1UUSER                                                              
    1UDATE              03.april.2020                                   
    1UTIME              21:26:51                                        
    1UHOST                                                              
    1UPGM               CalculiX                                        
    1UVERSION           Version 2.16                             
    1UCOMPILETIME       Mo 25. Nov 18:56:47 CET 2019                    
    1UDIR                                                               
    1UDBN                                                               
    1UMAT    1STEEL                                                     
    2C                           948                                     1
 -1         1 4.44444E+00-2.22222E+00 0.00000E+00
 -1         2 4.44444E+00 2.22222E+00 0.00000E+00
 -1         3-4.44444E+00 2.22222E+00 0.00000E+00
 -1         4-4.44444E+00-2.22222E+00 0.00000E+00
 -1         5 0.00000E+00 1.00000E+00 0.00000E+00
 -1         7 1.00000E+00 0.00000E+00 0.00000E+00
 -1         8 0.00000E+00-1.00000E+00 0.00000E+00
 -1         9-1.00000E+00 0.00000E+00 0.00000E+00
 -1        10-0.00000E+00 2.22222E+00 0.00000E+00
 -1        11 4.44444E+00 0.00000E+00 0.00000E+00
 -1        12-0.00000E+00-2.22222E+00 0.00000E+00
 -1        13-4.44444E+00-0.00000E+00 0.00000E+00
 -1        14 4.44444E+00-1.94444E+00 0.00000E+00
 -1        15 4.44444E+00-1.66667E+00 0.00000E+00
 -1        16 4.44444E+00-1.38889E+00 0.00000E+00
 -1        17 4.44444E+00-1.11111E+00 0.00000E+00
 -1        18 4.44444E+00-8.33333E-01 0.00000E+00
 -1        19 4.44444E+00-5.55556E-01 0.00000E+00
 -1        20 4.44444E+00-2.77778E-01 0.00000E+00
 -1        21 4.44444E+00-2.08333E+00 0.00000E+00
 -1        22 4.44444E+00-1.80555E+00 0.00000E+00
 -1        23 4.44444E+00-1.52778E+00 0.00000E+00
 -1        24 4.44444E+00-1.25000E+00 0.00000E+00
 -1        25 4.44444E+00-9.72222E-01 0.00000E+00
 -1        26 4.44444E+00-6.94444E-01 0.00000E+00
 -1        27 4.44444E+00-4.16667E-01 0.00000E+00
 -1        28 4.44444E+00-1.38889E-01 0.00000E+00
 -1        29 4.07407E+00 2.22222E+00 0.00000E+00
 -1        30 3.70370E+00 2.22222E+00 0.00000E+00
 -1        31 3.33333E+00 2.22222E+00 0.00000E+00
 -1        32 2.96296E+00 2.22222E+00 0.00000E+00
 -1        33 2.59259E+00 2.22222E+00 0.00000E+00
 -1        34 2.22222E+00 2.22222E+00 0.00000E+00
 -1        35 1.85185E+00 2.22222E+00 0.00000E+00
 -1        36 1.48148E+00 2.22222E+00 0.00000E+00
 -1        37 1.11111E+00 2.22222E+00 0.00000E+00
 -1        38 7.40741E-01 2.22222E+00 0.00000E+00
 -1        39 3.70370E-01 2.22222E+00 0.00000E+00
 -1        40 4.25926E+00 2.22222E+00 0.00000E+00
 -1        41 3.88889E+00 2.22222E+00 0.00000E+00
 -1        42 3.51852E+00 2.22222E+00 0.00000E+00
 -1        43 3.14815E+00 2.22222E+00 0.00000E+00
 -1        44 2.77778E+00 2.22222E+00 0.00000E+00
 -1        45 2.40741E+00 2.22222E+00 0.00000E+00
 -1        46 2.03704E+00 2.22222E+00 0.00000E+00
 -1        47 1.66667E+00 2.22222E+00 0.00000E+00
 -1        48 1.29630E+00 2.22222E+00 0.00000E+00
 -1        49 9.25926E-01 2.22222E+00 0.00000E+00
 -1        50 5.55556E-01 2.22222E+00 0.00000E+00
 -1        51 1.85185E-01 2.22222E+00 0.00000E+00
 -1        52-4.44444E+00 1.94444E+00 0.00000E+00
 -1        53-4.44444E+00 1.66667E+00 0.00000E+00
 -1        54-4.44444E+00 1.38889E+00 0.00000E+00
 -1        55-4.44444E+00 1.11111E+00 0.00000E+00
 -1        56-4.44444E+00 8.33333E-01 0.00000E+00
 -1        57-4.44444E+00 5.55556E-01 0.00000E+00
 -1        58-4.44444E+00 2.77778E-01 0.00000E+00
 -1        59-4.44444E+00 2.08333E+00 0.00000E+00
 -1        60-4.44444E+00 1.80555E+00 0.00000E+00
 -1        61-4.44444E+00 1.52778E+00 0.00000E+00
 -1        62-4.44444E+00 1.25000E+00 0.00000E+00
 -1        63-4.44444E+00 9.72222E-01 0.00000E+00
 -1        64-4.44444E+00 6.94444E-01 0.00000E+00
 -1        65-4.44444E+00 4.16667E-01 0.00000E+00
 -1        66-4.44444E+00 1.38889E-01 0.00000E+00
 -1        67-4.07407E+00-2.22222E+00 0.00000E+00
 -1        68-3.70370E+00-2.22222E+00 0.00000E+00
 -1        69-3.33333E+00-2.22222E+00 0.00000E+00
 -1        70-2.96296E+00-2.22222E+00 0.00000E+00
 -1        71-2.59259E+00-2.22222E+00 0.00000E+00
 -1        72-2.22222E+00-2.22222E+00 0.00000E+00
 -1        73-1.85185E+00-2.22222E+00 0.00000E+00
 -1        74-1.48148E+00-2.22222E+00 0.00000E+00
 -1        75-1.11111E+00-2.22222E+00 0.00000E+00
 -1        76-7.40741E-01-2.22222E+00 0.00000E+00
 -1        77-3.70370E-01-2.22222E+00 0.00000E+00
 -1        78-4.25926E+00-2.22222E+00 0.00000E+00
 -1        79-3.88889E+00-2.22222E+00 0.00000E+00
 -1        80-3.51852E+00-2.22222E+00 0.00000E+00
 -1        81-3.14815E+00-2.22222E+00 0.00000E+00
 -1        82-2.77778E+00-2.22222E+00 0.00000E+00
 -1        83-2.40741E+00-2.22222E+00 0.00000E+00
 -1        84-2.03704E+00-2.22222E+00 0.00000E+00
 -1        85-1.66667E+00-2.22222E+00 0.00000E+00
 -1        86-1.29630E+00-2.22222E+00 0.00000E+00
 -1        87-9.25926E-01-2.22222E+00 0.00000E+00
 -1        88-5.55556E-01-2.22222E+00 0.00000E+00
 -1        89-1.85185E-01-2.22222E+00 0.00000E+00
 -1        90 3.82683E-01 9.23880E-01 0.00000E+00
 -1        91 7.07107E-01 7.07107E-01 0.00000E+00
 -1        92 9.23880E-01 3.82683E-01 0.00000E+00
 -1        93 1.95090E-01 9.80785E-01 0.00000E+00
 -1        94 5.55570E-01 8.31470E-01 0.00000E+00
 -1        95 8.31470E-01 5.55570E-01 0.00000E+00
 -1        96 9.80785E-01 1.95090E-01 0.00000E+00
 -1        97 9.23880E-01-3.82683E-01 0.00000E+00
 -1        98 7.07107E-01-7.07107E-01 0.00000E+00
 -1        99 3.82683E-01-9.23880E-01 0.00000E+00
 -1       100 9.80785E-01-1.95090E-01 0.00000E+00
 -1       101 8.31470E-01-5.55570E-01 0.00000E+00
 -1       102 5.55570E-01-8.31470E-01 0.00000E+00
 -1       103 1.95090E-01-9.80785E-01 0.00000E+00
 -1       104-3.82683E-01-9.23880E-01 0.00000E+00
 -1       105-7.07107E-01-7.07107E-01 0.00000E+00
 -1       106-9.23880E-01-3.82683E-01 0.00000E+00
 -1       107-1.95090E-01-9.80785E-01 0.00000E+00
 -1       108-5.55570E-01-8.31470E-01 0.00000E+00
 -1       109-8.31470E-01-5.55570E-01 0.00000E+00
 -1       110-9.80785E-01-1.95090E-01 0.00000E+00
 -1       111-9.23880E-01 3.82683E-01 0.00000E+00
 -1       112-7.07107E-01 7.07107E-01 0.00000E+00
 -1       113-3.82683E-01 9.23880E-01 0.00000E+00
 -1       114-9.80785E-01 1.95090E-01 0.00000E+00
 -1       115-8.31470E-01 5.55570E-01 0.00000E+00
 -1       116-5.55570E-01 8.31470E-01 0.00000E+00
 -1       117-1.95090E-01 9.80785E-01 0.00000E+00
 -1       118-3.70370E-01 2.22222E+00 0.00000E+00
 -1       119-7.40741E-01 2.22222E+00 0.00000E+00
 -1       120-1.11111E+00 2.22222E+00 0.00000E+00
 -1       121-1.48148E+00 2.22222E+00 0.00000E+00
 -1       122-1.85185E+00 2.22222E+00 0.00000E+00
 -1       123-2.22222E+00 2.22222E+00 0.00000E+00
 -1       124-2.59259E+00 2.22222E+00 0.00000E+00
 -1       125-2.96296E+00 2.22222E+00 0.00000E+00
 -1       126-3.33333E+00 2.22222E+00 0.00000E+00
 -1       127-3.70370E+00 2.22222E+00 0.00000E+00
 -1       128-4.07407E+00 2.22222E+00 0.00000E+00
 -1       129-1.85185E-01 2.22222E+00 0.00000E+00
 -1       130-5.55555E-01 2.22222E+00 0.00000E+00
 -1       131-9.25926E-01 2.22222E+00 0.00000E+00
 -1       132-1.29630E+00 2.22222E+00 0.00000E+00
 -1       133-1.66667E+00 2.22222E+00 0.00000E+00
 -1       134-2.03704E+00 2.22222E+00 0.00000E+00
 -1       135-2.40741E+00 2.22222E+00 0.00000E+00
 -1       136-2.77778E+00 2.22222E+00 0.00000E+00
 -1       137-3.14815E+00 2.22222E+00 0.00000E+00
 -1       138-3.51852E+00 2.22222E+00 0.00000E+00
 -1       139-3.88889E+00 2.22222E+00 0.00000E+00
 -1       140-4.25926E+00 2.22222E+00 0.00000E+00
 -1       141 0.00000E+00 1.91667E+00 0.00000E+00
 -1       142 0.00000E+00 1.61111E+00 0.00000E+00
 -1       143 0.00000E+00 1.30556E+00 0.00000E+00
 -1       144 0.00000E+00 2.06944E+00 0.00000E+00
 -1       145 0.00000E+00 1.76389E+00 0.00000E+00
 -1       146 0.00000E+00 1.45833E+00 0.00000E+00
 -1       147 0.00000E+00 1.15278E+00 0.00000E+00
 -1       148 4.44444E+00 2.77778E-01 0.00000E+00
 -1       149 4.44444E+00 5.55555E-01 0.00000E+00
 -1       150 4.44444E+00 8.33333E-01 0.00000E+00
 -1       151 4.44444E+00 1.11111E+00 0.00000E+00
 -1       152 4.44444E+00 1.38889E+00 0.00000E+00
 -1       153 4.44444E+00 1.66667E+00 0.00000E+00
 -1       154 4.44444E+00 1.94444E+00 0.00000E+00
 -1       155 4.44444E+00 1.38889E-01 0.00000E+00
 -1       156 4.44444E+00 4.16667E-01 0.00000E+00
 -1       157 4.44444E+00 6.94444E-01 0.00000E+00
 -1       158 4.44444E+00 9.72222E-01 0.00000E+00
 -1       159 4.44444E+00 1.25000E+00 0.00000E+00
 -1       160 4.44444E+00 1.52778E+00 0.00000E+00
 -1       161 4.44444E+00 1.80555E+00 0.00000E+00
 -1       162 4.44444E+00 2.08333E+00 0.00000E+00
 -1       163 4.01389E+00 0.00000E+00 0.00000E+00
 -1       164 3.58333E+00 0.00000E+00 0.00000E+00
 -1       165 3.15278E+00 0.00000E+00 0.00000E+00
 -1       166 2.72222E+00 0.00000E+00 0.00000E+00
 -1       167 2.29167E+00 0.00000E+00 0.00000E+00
 -1       168 1.86111E+00 0.00000E+00 0.00000E+00
 -1       169 1.43056E+00 0.00000E+00 0.00000E+00
 -1       170 4.22917E+00 0.00000E+00 0.00000E+00
 -1       171 3.79861E+00 0.00000E+00 0.00000E+00
 -1       172 3.36806E+00 0.00000E+00 0.00000E+00
 -1       173 2.93750E+00 0.00000E+00 0.00000E+00
 -1       174 2.50694E+00 0.00000E+00 0.00000E+00
 -1       175 2.07639E+00 0.00000E+00 0.00000E+00
 -1       176 1.64583E+00 0.00000E+00 0.00000E+00
 -1       177 1.21528E+00 0.00000E+00 0.00000E+00
 -1       178 3.70370E-01-2.22222E+00 0.00000E+00
 -1       179 7.40741E-01-2.22222E+00 0.00000E+00
 -1       180 1.11111E+00-2.22222E+00 0.00000E+00
 -1       181 1.48148E+00-2.22222E+00 0.00000E+00
 -1       182 1.85185E+00-2.22222E+00 0.00000E+00
 -1       183 2.22222E+00-2.22222E+00 0.00000E+00
 -1       184 2.59259E+00-2.22222E+00 0.00000E+00
 -1       185 2.96296E+00-2.22222E+00 0.00000E+00
 -1       186 3.33333E+00-2.22222E+00 0.00000E+00
 -1       187 3.70370E+00-2.22222E+00 0.00000E+00
 -1       188 4.07407E+00-2.22222E+00 0.00000E+00
 -1       189 1.85185E-01-2.22222E+00 0.00000E+00
 -1       190 5.55555E-01-2.22222E+00 0.00000E+00
 -1       191 9.25926E-01-2.22222E+00 0.00000E+00
 -1       192 1.29630E+00-2.22222E+00 0.00000E+00
 -1       193 1.66667E+00-2.22222E+00 0.00000E+00
 -1       194 2.03704E+00-2.22222E+00 0.00000E+00
 -1       195 2.40741E+00-2.22222E+00 0.00000E+00
 -1       196 2.77778E+00-2.22222E+00 0.00000E+00
 -1       197 3.14815E+00-2.22222E+00 0.00000E+00
 -1       198 3.51852E+00-2.22222E+00 0.00000E+00
 -1       199 3.88889E+00-2.22222E+00 0.00000E+00
 -1       200 4.25926E+00-2.22222E+00 0.00000E+00
 -1       201 0.00000E+00-1.30555E+00 0.00000E+00
 -1       202 0.00000E+00-1.61111E+00 0.00000E+00
 -1       203 0.00000E+00-1.91667E+00 0.00000E+00
 -1       204 0.00000E+00-1.15278E+00 0.00000E+00
 -1       205 0.00000E+00-1.45833E+00 0.00000E+00
 -1       206 0.00000E+00-1.76389E+00 0.00000E+00
 -1       207 0.00000E+00-2.06944E+00 0.00000E+00
 -1       208-4.44444E+00-2.77778E-01 0.00000E+00
 -1       209-4.44444E+00-5.55555E-01 0.00000E+00
 -1       210-4.44444E+00-8.33333E-01 0.00000E+00
 -1       211-4.44444E+00-1.11111E+00 0.00000E+00
 -1       212-4.44444E+00-1.38889E+00 0.00000E+00
 -1       213-4.44444E+00-1.66667E+00 0.00000E+00
 -1       214-4.44444E+00-1.94444E+00 0.00000E+00
 -1       215-4.44444E+00-1.38889E-01 0.00000E+00
 -1       216-4.44444E+00-4.16667E-01 0.00000E+00
 -1       217-4.44444E+00-6.94444E-01 0.00000E+00
 -1       218-4.44444E+00-9.72222E-01 0.00000E+00
 -1       219-4.44444E+00-1.25000E+00 0.00000E+00
 -1       220-4.44444E+00-1.52778E+00 0.00000E+00
 -1       221-4.44444E+00-1.80555E+00 0.00000E+00
 -1       222-4.44444E+00-2.08333E+00 0.00000E+00
 -1       223-1.43055E+00 0.00000E+00 0.00000E+00
 -1       224-1.86111E+00 0.00000E+00 0.00000E+00
 -1       225-2.29167E+00 0.00000E+00 0.00000E+00
 -1       226-2.72222E+00 0.00000E+00 0.00000E+00
 -1       227-3.15278E+00 0.00000E+00 0.00000E+00
 -1       228-3.58333E+00 0.00000E+00 0.00000E+00
 -1       229-4.01389E+00 0.00000E+00 0.00000E+00
 -1       230-1.21528E+00 0.00000E+00 0.00000E+00
 -1       231-1.64583E+00 0.00000E+00 0.00000E+00
 -1       232-2.07639E+00 0.00000E+00 0.00000E+00
 -1       233-2.50694E+00 0.00000E+00 0.00000E+00
 -1       234-2.93750E+00 0.00000E+00 0.00000E+00
 -1       235-3.36806E+00 0.00000E+00 0.00000E+00
 -1       236-3.79861E+00 0.00000E+00 0.00000E+00
 -1       237-4.22917E+00 0.00000E+00 0.00000E+00
 -1       238 3.17710E+00-1.55475E+00 0.00000E+00
 -1       239 2.44131E+00-1.47515E+00 0.00000E+00
 -1       240 3.83794E+00-1.63380E+00 0.00000E+00
 -1       241 7.38627E-01-1.49027E+00 0.00000E+00
 -1       242 2.07355E+00-7.07660E-01 0.00000E+00
 -1       243 2.65374E+00-7.40381E-01 0.00000E+00
 -1       244 3.97828E+00-1.20521E+00 0.00000E+00
 -1       245 3.57312E+00-8.19529E-01 0.00000E+00
 -1       246 1.34593E+00-6.95058E-01 0.00000E+00
 -1       247 1.61689E+00-1.27813E+00 0.00000E+00
 -1       248 3.90811E+00-1.41951E+00 0.00000E+00
 -1       249 3.77570E+00-1.01237E+00 0.00000E+00
 -1       250 3.37511E+00-1.18714E+00 0.00000E+00
 -1       251 3.50752E+00-1.59427E+00 0.00000E+00
 -1       252 3.64161E+00-1.30332E+00 0.00000E+00
 -1       253 1.02652E+00-7.01082E-01 0.00000E+00
 -1       254 7.22867E-01-1.09869E+00 0.00000E+00
 -1       255 1.17776E+00-1.38420E+00 0.00000E+00
 -1       256 1.48141E+00-9.86596E-01 0.00000E+00
 -1       257 1.10214E+00-1.04264E+00 0.00000E+00
 -1       258 3.57823E+00-4.09764E-01 0.00000E+00
 -1       259 4.00878E+00-6.87542E-01 0.00000E+00
 -1       260 4.01134E+00-3.43771E-01 0.00000E+00
 -1       261 3.69314E-01-1.55069E+00 0.00000E+00
 -1       262 3.75999E-01-1.23729E+00 0.00000E+00
 -1       263 2.36365E+00-7.24020E-01 0.00000E+00
 -1       264 1.84522E+00-9.92897E-01 0.00000E+00
 -1       265 2.02910E+00-1.37664E+00 0.00000E+00
 -1       266 2.54752E+00-1.10776E+00 0.00000E+00
 -1       267 2.19637E+00-1.05033E+00 0.00000E+00
 -1       268 1.60352E+00-3.47529E-01 0.00000E+00
 -1       269 1.96733E+00-3.53830E-01 0.00000E+00
 -1       270 1.72437E+00-6.70213E-01 0.00000E+00
 -1       271 2.68798E+00-3.70191E-01 0.00000E+00
 -1       272 2.32766E+00-3.62010E-01 0.00000E+00
 -1       273 7.39684E-01-1.85625E+00 0.00000E+00
 -1       274 3.69842E-01-1.88646E+00 0.00000E+00
 -1       275 3.11343E+00-7.79955E-01 0.00000E+00
 -1       276 3.13310E+00-3.89977E-01 0.00000E+00
 -1       277 3.07003E+00-1.88848E+00 0.00000E+00
 -1       278 3.77082E+00-1.92801E+00 0.00000E+00
 -1       279 3.42043E+00-1.90825E+00 0.00000E+00
 -1       280 1.54919E+00-1.75018E+00 0.00000E+00
 -1       281 2.33176E+00-1.84868E+00 0.00000E+00
 -1       282 1.94048E+00-1.79943E+00 0.00000E+00
 -1       283 1.14444E+00-1.80321E+00 0.00000E+00
 -1       284 1.26370E+00-3.65106E-01 0.00000E+00
 -1       285 2.80920E+00-1.51495E+00 0.00000E+00
 -1       286 2.70090E+00-1.86858E+00 0.00000E+00
 -1       287 4.14119E+00-1.65024E+00 0.00000E+00
 -1       288 4.10763E+00-1.93623E+00 0.00000E+00
 -1       289 2.96132E+00-1.14745E+00 0.00000E+00
 -1       290 4.21136E+00-1.15816E+00 0.00000E+00
 -1       291 4.11007E+00-9.22851E-01 0.00000E+00
 -1       292 4.17628E+00-1.40420E+00 0.00000E+00
 -1       293 3.87303E+00-1.52665E+00 0.00000E+00
 -1       294 3.77486E+00-1.36141E+00 0.00000E+00
 -1       295 3.57457E+00-1.44880E+00 0.00000E+00
 -1       296 3.67273E+00-1.61404E+00 0.00000E+00
 -1       297 3.94320E+00-1.31236E+00 0.00000E+00
 -1       298 3.87699E+00-1.10879E+00 0.00000E+00
 -1       299 3.70866E+00-1.15785E+00 0.00000E+00
 -1       300 3.67441E+00-9.15948E-01 0.00000E+00
 -1       301 3.47412E+00-1.00333E+00 0.00000E+00
 -1       302 3.50836E+00-1.24523E+00 0.00000E+00
 -1       303 3.27610E+00-1.37094E+00 0.00000E+00
 -1       304 3.34231E+00-1.57451E+00 0.00000E+00
 -1       305 1.18623E+00-6.98070E-01 0.00000E+00
 -1       306 1.06433E+00-8.71862E-01 0.00000E+00
 -1       307 1.29178E+00-1.01462E+00 0.00000E+00
 -1       308 1.41367E+00-8.40827E-01 0.00000E+00
 -1       309 8.66813E-01-7.04095E-01 0.00000E+00
 -1       310 7.14987E-01-9.02897E-01 0.00000E+00
 -1       311 9.12503E-01-1.07067E+00 0.00000E+00
 -1       312 7.30747E-01-1.29448E+00 0.00000E+00
 -1       313 9.58194E-01-1.43723E+00 0.00000E+00
 -1       314 1.13995E+00-1.21342E+00 0.00000E+00
 -1       315 1.39733E+00-1.33117E+00 0.00000E+00
 -1       316 1.54915E+00-1.13236E+00 0.00000E+00
 -1       317 3.58078E+00-2.04882E-01 0.00000E+00
 -1       318 3.79478E+00-3.76768E-01 0.00000E+00
 -1       319 4.01261E+00-1.71886E-01 0.00000E+00
 -1       320 3.57568E+00-6.14646E-01 0.00000E+00
 -1       321 3.79095E+00-7.53535E-01 0.00000E+00
 -1       322 4.01006E+00-5.15657E-01 0.00000E+00
 -1       323 4.22661E+00-6.21549E-01 0.00000E+00
 -1       324 4.22789E+00-3.10774E-01 0.00000E+00
 -1       325 3.79341E-01-1.08058E+00 0.00000E+00
 -1       326 5.49433E-01-1.16799E+00 0.00000E+00
 -1       327 1.87999E-01-1.27142E+00 0.00000E+00
 -1       328 1.84657E-01-1.58090E+00 0.00000E+00
 -1       329 3.72656E-01-1.39399E+00 0.00000E+00
 -1       330 5.53970E-01-1.52048E+00 0.00000E+00
 -1       331 2.50869E+00-7.32201E-01 0.00000E+00
 -1       332 2.28001E+00-8.87175E-01 0.00000E+00
 -1       333 2.37195E+00-1.07905E+00 0.00000E+00
 -1       334 2.60063E+00-9.24072E-01 0.00000E+00
 -1       335 2.21860E+00-7.15840E-01 0.00000E+00
 -1       336 1.95939E+00-8.50278E-01 0.00000E+00
 -1       337 2.02080E+00-1.02161E+00 0.00000E+00
 -1       338 1.73106E+00-1.13552E+00 0.00000E+00
 -1       339 1.82300E+00-1.32739E+00 0.00000E+00
 -1       340 2.11274E+00-1.21349E+00 0.00000E+00
 -1       341 2.23520E+00-1.42589E+00 0.00000E+00
 -1       342 2.49441E+00-1.29146E+00 0.00000E+00
 -1       343 1.73232E+00-1.73765E-01 0.00000E+00
 -1       344 1.66395E+00-5.08871E-01 0.00000E+00
 -1       345 1.84585E+00-5.12021E-01 0.00000E+00
 -1       346 1.91422E+00-1.76915E-01 0.00000E+00
 -1       347 1.47473E+00-5.21294E-01 0.00000E+00
 -1       348 1.60289E+00-8.28405E-01 0.00000E+00
 -1       349 1.78480E+00-8.31555E-01 0.00000E+00
 -1       350 2.02044E+00-5.30745E-01 0.00000E+00
 -1       351 2.67086E+00-5.55286E-01 0.00000E+00
 -1       352 2.50782E+00-3.66100E-01 0.00000E+00
 -1       353 2.34565E+00-5.43015E-01 0.00000E+00
 -1       354 2.70510E+00-1.85095E-01 0.00000E+00
 -1       355 2.30966E+00-1.81005E-01 0.00000E+00
 -1       356 2.14749E+00-3.57920E-01 0.00000E+00
 -1       357 7.40212E-01-2.03923E+00 0.00000E+00
 -1       358 5.54763E-01-1.87135E+00 0.00000E+00
 -1       359 3.70106E-01-2.05434E+00 0.00000E+00
 -1       360 7.39156E-01-1.67326E+00 0.00000E+00
 -1       361 3.69578E-01-1.71857E+00 0.00000E+00
 -1       362 1.84921E-01-1.90156E+00 0.00000E+00
 -1       363 3.35567E+00-3.99871E-01 0.00000E+00
 -1       364 3.12327E+00-5.84966E-01 0.00000E+00
 -1       365 3.34328E+00-7.99742E-01 0.00000E+00
 -1       366 3.14294E+00-1.94989E-01 0.00000E+00
 -1       367 2.91054E+00-3.80084E-01 0.00000E+00
 -1       368 2.88358E+00-7.60168E-01 0.00000E+00
 -1       369 3.46397E+00-1.75126E+00 0.00000E+00
 -1       370 3.59562E+00-1.91813E+00 0.00000E+00
 -1       371 3.80438E+00-1.78091E+00 0.00000E+00
 -1       372 3.12356E+00-1.72161E+00 0.00000E+00
 -1       373 3.24523E+00-1.89837E+00 0.00000E+00
 -1       374 3.01650E+00-2.05535E+00 0.00000E+00
 -1       375 3.37688E+00-2.06523E+00 0.00000E+00
 -1       376 3.73726E+00-2.07512E+00 0.00000E+00
 -1       377 1.58304E+00-1.51416E+00 0.00000E+00
 -1       378 1.74483E+00-1.77480E+00 0.00000E+00
 -1       379 1.98479E+00-1.58804E+00 0.00000E+00
 -1       380 1.51533E+00-1.98620E+00 0.00000E+00
 -1       381 1.89616E+00-2.01083E+00 0.00000E+00
 -1       382 2.27699E+00-2.03545E+00 0.00000E+00
 -1       383 2.13612E+00-1.82406E+00 0.00000E+00
 -1       384 2.38653E+00-1.66191E+00 0.00000E+00
 -1       385 1.34681E+00-1.77670E+00 0.00000E+00
 -1       386 1.12777E+00-2.01272E+00 0.00000E+00
 -1       387 1.16110E+00-1.59371E+00 0.00000E+00
 -1       388 9.42060E-01-1.82973E+00 0.00000E+00
 -1       389 1.34713E+00-1.82553E-01 0.00000E+00
 -1       390 1.43361E+00-3.56318E-01 0.00000E+00
 -1       391 1.09379E+00-3.73895E-01 0.00000E+00
 -1       392 1.14511E+00-5.33094E-01 0.00000E+00
 -1       393 2.64674E+00-2.04540E+00 0.00000E+00
 -1       394 2.51633E+00-1.85863E+00 0.00000E+00
 -1       395 2.88546E+00-1.87853E+00 0.00000E+00
 -1       396 2.99315E+00-1.53485E+00 0.00000E+00
 -1       397 2.75505E+00-1.69176E+00 0.00000E+00
 -1       398 2.62525E+00-1.49505E+00 0.00000E+00
 -1       399 4.09085E+00-2.07923E+00 0.00000E+00
 -1       400 3.93923E+00-1.93212E+00 0.00000E+00
 -1       401 4.27604E+00-1.94034E+00 0.00000E+00
 -1       402 4.29282E+00-1.65845E+00 0.00000E+00
 -1       403 4.12441E+00-1.79323E+00 0.00000E+00
 -1       404 3.98957E+00-1.64202E+00 0.00000E+00
 -1       405 3.03737E+00-9.63703E-01 0.00000E+00
 -1       406 3.16821E+00-1.16729E+00 0.00000E+00
 -1       407 2.75442E+00-1.12761E+00 0.00000E+00
 -1       408 2.88526E+00-1.33120E+00 0.00000E+00
 -1       409 3.94289E+00-9.67609E-01 0.00000E+00
 -1       410 4.05943E+00-8.05196E-01 0.00000E+00
 -1       411 4.09482E+00-1.18168E+00 0.00000E+00
 -1       412 4.16072E+00-1.04051E+00 0.00000E+00
 -1       413 4.32790E+00-1.13463E+00 0.00000E+00
 -1       414 4.27726E+00-8.78092E-01 0.00000E+00
 -1       415 4.31036E+00-1.39654E+00 0.00000E+00
 -1       416 4.15873E+00-1.52722E+00 0.00000E+00
 -1       417 4.19382E+00-1.28118E+00 0.00000E+00
 -1       418 4.04219E+00-1.41185E+00 0.00000E+00
 -1       419 1.40154E+00 1.00851E+00 0.00000E+00
 -1       420 3.70685E+00 6.69947E-01 0.00000E+00
 -1       421 6.98476E-01 1.33527E+00 0.00000E+00
 -1       422 3.90790E+00 1.37429E+00 0.00000E+00
 -1       423 2.51944E+00 1.54911E+00 0.00000E+00
 -1       424 2.95046E+00 7.38118E-01 0.00000E+00
 -1       425 3.27703E+00 1.47532E+00 0.00000E+00
 -1       426 1.72043E+00 1.70396E+00 0.00000E+00
 -1       427 2.17352E+00 8.11804E-01 0.00000E+00
 -1       428 4.17617E+00 1.79825E+00 0.00000E+00
 -1       429 4.17617E+00 1.52048E+00 0.00000E+00
 -1       430 4.17617E+00 1.24270E+00 0.00000E+00
 -1       431 1.97133E+00 1.96309E+00 0.00000E+00
 -1       432 1.60096E+00 1.96309E+00 0.00000E+00
 -1       433 1.23058E+00 1.96309E+00 0.00000E+00
 -1       434 3.80738E+00 1.02212E+00 0.00000E+00
 -1       435 4.07565E+00 6.12751E-01 0.00000E+00
 -1       436 4.12591E+00 9.27725E-01 0.00000E+00
 -1       437 3.64509E+00 3.34974E-01 0.00000E+00
 -1       438 4.04477E+00 3.06376E-01 0.00000E+00
 -1       439 7.19608E-01 1.77875E+00 0.00000E+00
 -1       440 3.49238E-01 1.47319E+00 0.00000E+00
 -1       441 3.59804E-01 1.84771E+00 0.00000E+00
 -1       442 1.56098E+00 1.35623E+00 0.00000E+00
 -1       443 1.05001E+00 1.17189E+00 0.00000E+00
 -1       444 1.14030E+00 1.56749E+00 0.00000E+00
 -1       445 7.02791E-01 1.02119E+00 0.00000E+00
 -1       446 1.20077E+00 5.04255E-01 0.00000E+00
 -1       447 9.86944E-01 7.77286E-01 0.00000E+00
 -1       448 2.01732E+00 4.05902E-01 0.00000E+00
 -1       449 1.78753E+00 9.10157E-01 0.00000E+00
 -1       450 1.60904E+00 4.55078E-01 0.00000E+00
 -1       451 3.65961E-01 1.19853E+00 0.00000E+00
 -1       452 3.32866E+00 7.04032E-01 0.00000E+00
 -1       453 2.83634E+00 3.69059E-01 0.00000E+00
 -1       454 3.24072E+00 3.52016E-01 0.00000E+00
 -1       455 3.59246E+00 1.42480E+00 0.00000E+00
 -1       456 3.11374E+00 1.10672E+00 0.00000E+00
 -1       457 3.46056E+00 1.06442E+00 0.00000E+00
 -1       458 2.89823E+00 1.51221E+00 0.00000E+00
 -1       459 3.49037E+00 1.84877E+00 0.00000E+00
 -1       460 2.74120E+00 1.88567E+00 0.00000E+00
 -1       461 3.11578E+00 1.86722E+00 0.00000E+00
 -1       462 2.56199E+00 7.74961E-01 0.00000E+00
 -1       463 2.42683E+00 3.87480E-01 0.00000E+00
 -1       464 2.11993E+00 1.62653E+00 0.00000E+00
 -1       465 2.35626E+00 1.92438E+00 0.00000E+00
 -1       466 2.34648E+00 1.18046E+00 0.00000E+00
 -1       467 2.73011E+00 1.14359E+00 0.00000E+00
 -1       468 1.95373E+00 1.26834E+00 0.00000E+00
 -1       469 3.83327E+00 1.82351E+00 0.00000E+00
 -1       470 4.26560E+00 1.75439E+00 0.00000E+00
 -1       471 4.26560E+00 1.38402E+00 0.00000E+00
 -1       472 1.80804E+00 2.04947E+00 0.00000E+00
 -1       473 1.31422E+00 2.04947E+00 0.00000E+00
 -1       474 4.28518E+00 8.80529E-01 0.00000E+00
 -1       475 4.10078E+00 7.70238E-01 0.00000E+00
 -1       476 4.26005E+00 5.84153E-01 0.00000E+00
 -1       477 4.31031E+00 1.17691E+00 0.00000E+00
 -1       478 4.15104E+00 1.08521E+00 0.00000E+00
 -1       479 4.04204E+00 1.30849E+00 0.00000E+00
 -1       480 3.85764E+00 1.19820E+00 0.00000E+00
 -1       481 3.96664E+00 9.74921E-01 0.00000E+00
 -1       482 3.75711E+00 8.46032E-01 0.00000E+00
 -1       483 3.89125E+00 6.41349E-01 0.00000E+00
 -1       484 4.24461E+00 2.92077E-01 0.00000E+00
 -1       485 4.02933E+00 1.53188E-01 0.00000E+00
 -1       486 4.06021E+00 4.59563E-01 0.00000E+00
 -1       487 3.67597E+00 5.02460E-01 0.00000E+00
 -1       488 3.84493E+00 3.20675E-01 0.00000E+00
 -1       489 3.61421E+00 1.67487E-01 0.00000E+00
 -1       490 7.09042E-01 1.55701E+00 0.00000E+00
 -1       491 5.39706E-01 1.81323E+00 0.00000E+00
 -1       492 3.54521E-01 1.66045E+00 0.00000E+00
 -1       493 5.23857E-01 1.40423E+00 0.00000E+00
 -1       494 7.30175E-01 2.00048E+00 0.00000E+00
 -1       495 3.65087E-01 2.03496E+00 0.00000E+00
 -1       496 1.79902E-01 1.88219E+00 0.00000E+00
 -1       497 1.74619E-01 1.54215E+00 0.00000E+00
 -1       498 1.48126E+00 1.18237E+00 0.00000E+00
 -1       499 1.35064E+00 1.46186E+00 0.00000E+00
 -1       500 1.09515E+00 1.36969E+00 0.00000E+00
 -1       501 1.22577E+00 1.09020E+00 0.00000E+00
 -1       502 1.64071E+00 1.53009E+00 0.00000E+00
 -1       503 1.47551E+00 1.83352E+00 0.00000E+00
 -1       504 1.18544E+00 1.76529E+00 0.00000E+00
 -1       505 9.85662E-01 2.09266E+00 0.00000E+00
 -1       506 9.29952E-01 1.67312E+00 0.00000E+00
 -1       507 8.74242E-01 1.25358E+00 0.00000E+00
 -1       508 7.00634E-01 1.17823E+00 0.00000E+00
 -1       509 8.44868E-01 8.99237E-01 0.00000E+00
 -1       510 1.01848E+00 9.74588E-01 0.00000E+00
 -1       511 7.04949E-01 8.64147E-01 0.00000E+00
 -1       512 9.55412E-01 5.79985E-01 0.00000E+00
 -1       513 1.10038E+00 2.52127E-01 0.00000E+00
 -1       514 1.09386E+00 6.40770E-01 0.00000E+00
 -1       515 1.30115E+00 7.56382E-01 0.00000E+00
 -1       516 1.51980E+00 2.27539E-01 0.00000E+00
 -1       517 1.40491E+00 4.79667E-01 0.00000E+00
 -1       518 1.93921E+00 2.02951E-01 0.00000E+00
 -1       519 1.81318E+00 4.30490E-01 0.00000E+00
 -1       520 2.09542E+00 6.08853E-01 0.00000E+00
 -1       521 1.98053E+00 8.60980E-01 0.00000E+00
 -1       522 1.69829E+00 6.82617E-01 0.00000E+00
 -1       523 1.59454E+00 9.59333E-01 0.00000E+00
 -1       524 5.34376E-01 1.10986E+00 0.00000E+00
 -1       525 3.74322E-01 1.06121E+00 0.00000E+00
 -1       526 3.57599E-01 1.33586E+00 0.00000E+00
 -1       527 1.82980E-01 1.25205E+00 0.00000E+00
 -1       528 3.51776E+00 6.86990E-01 0.00000E+00
 -1       529 3.28469E+00 5.28024E-01 0.00000E+00
 -1       530 3.44290E+00 3.43495E-01 0.00000E+00
 -1       531 3.13956E+00 7.21075E-01 0.00000E+00
 -1       532 2.89340E+00 5.53588E-01 0.00000E+00
 -1       533 3.03853E+00 3.60538E-01 0.00000E+00
 -1       534 2.77928E+00 1.84529E-01 0.00000E+00
 -1       535 3.19675E+00 1.76008E-01 0.00000E+00
 -1       536 3.39461E+00 8.84225E-01 0.00000E+00
 -1       537 3.28715E+00 1.08557E+00 0.00000E+00
 -1       538 3.03210E+00 9.22418E-01 0.00000E+00
 -1       539 3.63397E+00 1.04327E+00 0.00000E+00
 -1       540 3.75018E+00 1.39954E+00 0.00000E+00
 -1       541 3.52651E+00 1.24461E+00 0.00000E+00
 -1       542 3.43475E+00 1.45006E+00 0.00000E+00
 -1       543 3.19539E+00 1.29102E+00 0.00000E+00
 -1       544 2.70884E+00 1.53066E+00 0.00000E+00
 -1       545 3.00701E+00 1.68972E+00 0.00000E+00
 -1       546 2.92849E+00 1.87644E+00 0.00000E+00
 -1       547 2.63032E+00 1.71739E+00 0.00000E+00
 -1       548 3.08763E+00 1.49377E+00 0.00000E+00
 -1       549 3.38370E+00 1.66205E+00 0.00000E+00
 -1       550 3.30307E+00 1.85799E+00 0.00000E+00
 -1       551 3.59703E+00 2.03550E+00 0.00000E+00
 -1       552 3.22456E+00 2.04472E+00 0.00000E+00
 -1       553 2.85208E+00 2.05394E+00 0.00000E+00
 -1       554 2.35925E+00 1.93740E-01 0.00000E+00
 -1       555 2.22207E+00 3.96691E-01 0.00000E+00
 -1       556 2.63159E+00 3.78270E-01 0.00000E+00
 -1       557 2.75623E+00 7.56539E-01 0.00000E+00
 -1       558 2.49441E+00 5.81221E-01 0.00000E+00
 -1       559 2.36776E+00 7.93382E-01 0.00000E+00
 -1       560 2.47443E+00 2.07330E+00 0.00000E+00
 -1       561 2.54873E+00 1.90502E+00 0.00000E+00
 -1       562 2.09677E+00 2.09266E+00 0.00000E+00
 -1       563 2.16379E+00 1.94373E+00 0.00000E+00
 -1       564 1.84588E+00 1.83352E+00 0.00000E+00
 -1       565 1.92018E+00 1.66525E+00 0.00000E+00
 -1       566 2.23810E+00 1.77546E+00 0.00000E+00
 -1       567 2.31969E+00 1.58782E+00 0.00000E+00
 -1       568 2.81417E+00 1.32790E+00 0.00000E+00
 -1       569 2.92193E+00 1.12515E+00 0.00000E+00
 -1       570 2.43296E+00 1.36478E+00 0.00000E+00
 -1       571 2.53830E+00 1.16202E+00 0.00000E+00
 -1       572 2.26000E+00 9.96130E-01 0.00000E+00
 -1       573 2.64605E+00 9.59274E-01 0.00000E+00
 -1       574 1.75736E+00 1.31229E+00 0.00000E+00
 -1       575 2.03683E+00 1.44744E+00 0.00000E+00
 -1       576 1.87063E+00 1.08925E+00 0.00000E+00
 -1       577 2.15011E+00 1.22440E+00 0.00000E+00
 -1       578 3.95367E+00 2.02287E+00 0.00000E+00
 -1       579 4.00472E+00 1.81088E+00 0.00000E+00
 -1       580 4.31031E+00 2.01024E+00 0.00000E+00
 -1       581 3.66182E+00 1.83614E+00 0.00000E+00
 -1       582 3.71287E+00 1.62416E+00 0.00000E+00
 -1       583 4.04204E+00 1.58627E+00 0.00000E+00
 -1       584 4.35502E+00 1.84942E+00 0.00000E+00