
 stresses (elem, integ.pnt.,sxx,syy,szz,sxy,sxz,syz) for set EALL and time  0.1000000E+01

         1   1  1.032242E+03  3.824735E+01 -2.899835E-01  7.105934E+01 -2.686230E+00  1.704221E+00
         1   2  1.024585E+03  4.718548E+01 -4.868150E-01  7.368230E+01 -1.902507E+00  1.893866E+00
         1   3  1.019884E+03  5.764125E+01  3.906664E-01  7.567251E+01 -1.212818E+00  2.116159E+00
         1   4  1.041005E+03  3.846355E+01 -1.875047E-02  8.415069E+01 -2.743791E+00  5.472388E-01
         1   5  1.029964E+03  4.862114E+01 -1.516446E-01  8.636488E+01 -1.779196E+00  8.786269E-01
         1   6  1.020541E+03  5.951237E+01 -5.264703E-02  8.820265E+01 -8.520424E-01  1.225165E+00
         1   7  1.049614E+03  3.780849E+01  4.134893E-02  9.763865E+01 -2.804892E+00 -6.335644E-01
         1   8  1.035515E+03  4.895487E+01  2.059778E-01  9.966339E+01 -1.676180E+00 -2.144322E-01
         1   9  1.022002E+03  6.018394E+01 -1.088676E-01  1.015227E+02 -5.429336E-01  2.026754E-01
         1  10  1.032242E+03  3.824735E+01 -2.899835E-01  7.105934E+01  4.342698E-13  4.718509E-13
         1  11  1.024585E+03  4.718548E+01 -4.868150E-01  7.368230E+01  6.681074E-13 -2.194185E-13
         1  12  1.019884E+03  5.764125E+01  3.906664E-01  7.567251E+01  3.257024E-13 -8.789788E-13
         1  13  1.041005E+03  3.846355E+01 -1.875047E-02  8.415069E+01 -1.837295E-13  2.338376E-13
         1  14  1.029964E+03  4.862114E+01 -1.516446E-01  8.636488E+01 -3.215267E-13 -2.004322E-13
         1  15  1.020541E+03  5.951237E+01 -5.264703E-02  8.820265E+01 -2.672430E-13 -4.655874E-13
         1  16  1.049614E+03  3.780849E+01  4.134893E-02  9.763865E+01  1.002161E-13  2.004322E-13
         1  17  1.035515E+03  4.895487E+01  2.059778E-01  9.966339E+01 -6.012967E-13 -2.087836E-14
         1  18  1.022002E+03  6.018394E+01 -1.088676E-01  1.015227E+02 -5.136076E-13 -1.273580E-13
         1  19  1.032242E+03  3.824735E+01 -2.899835E-01  7.105934E+01  2.686230E+00 -1.704221E+00
         1  20  1.024585E+03  4.718548E+01 -4.868150E-01  7.368230E+01  1.902507E+00 -1.893866E+00
         1  21  1.019884E+03  5.764125E+01  3.906664E-01  7.567251E+01  1.212818E+00 -2.116159E+00
         1  22  1.041005E+03  3.846355E+01 -1.875047E-02  8.415069E+01  2.743791E+00 -5.472388E-01
         1  23  1.029964E+03  4.862114E+01 -1.516446E-01  8.636488E+01  1.779196E+00 -8.786269E-01
         1  24  1.020541E+03  5.951237E+01 -5.264703E-02  8.820265E+01  8.520424E-01 -1.225165E+00
         1  25  1.049614E+03  3.780849E+01  4.134893E-02  9.763865E+01  2.804892E+00  6.335644E-01
         1  26  1.035515E+03  4.895487E+01  2.059778E-01  9.966339E+01  1.676180E+00  2.144322E-01
         1  27  1.022002E+03  6.018394E+01 -1.088676E-01  1.015227E+02  5.429336E-01 -2.026754E-01
         2   1  1.016303E+03  6.329686E+01  3.955637E-01  7.630686E+01 -7.857106E-01  2.256366E+00
         2   2  1.008296E+03  7.246606E+01 -5.767353E-01  7.559438E+01  4.423755E-02  2.559602E+00
         2   3  1.005475E+03  8.399659E+01  3.720467E-01  7.410685E+01  8.069266E-01  2.886179E+00
         2   4  1.016060E+03  6.577905E+01  1.004654E-01  8.877368E+01 -3.765478E-01  1.287383E+00
         2   5  1.007210E+03  7.684373E+01 -2.527624E-01  8.621368E+01  6.001509E-01  1.721134E+00
         2   6  1.001528E+03  8.921120E+01  1.909403E-01  8.315118E+01  1.564906E+00  2.159705E+00
         2   7  1.014546E+03  6.738753E+01 -2.474461E-01  1.003596E+02  3.876283E-02  3.311659E-01
         2   8  1.005219E+03  8.026035E+01  1.873518E-01  9.626933E+01  1.136931E+00  8.536090E-01
         2   9  9.975632E+02  9.361293E+01  5.219384E-01  9.190270E+01  2.262050E+00  1.363924E+00
         2  10  1.016303E+03  6.329686E+01  3.955637E-01  7.630686E+01  6.681074E-13  2.129592E-13
         2  11  1.008296E+03  7.246606E+01 -5.767353E-01  7.559438E+01  7.015128E-13 -1.106553E-13
         2  12  1.005475E+03  8.399659E+01  3.720467E-01  7.410685E+01  4.676752E-13 -2.573257E-13
         2  13  1.016060E+03  6.577905E+01  1.004654E-01  8.877368E+01  1.419728E-13  2.839457E-13
         2  14  1.007210E+03  7.684373E+01 -2.527624E-01  8.621368E+01 -1.419728E-13  1.002161E-13
         2  15  1.001528E+03  8.921120E+01  1.909403E-01  8.315118E+01 -3.674591E-13 -2.025201E-13
         2  16  1.014546E+03  6.738753E+01 -2.474461E-01  1.003596E+02 -5.010806E-13  5.010806E-13
         2  17  1.005219E+03  8.026035E+01  1.873518E-01  9.626933E+01 -8.852423E-13  2.066957E-13
         2  18  9.975632E+02  9.361293E+01  5.219384E-01  9.190270E+01 -7.015128E-13 -9.343065E-14
         2  19  1.016303E+03  6.329686E+01  3.955637E-01  7.630686E+01  7.857106E-01 -2.256366E+00
         2  20  1.008296E+03  7.246606E+01 -5.767353E-01  7.559438E+01 -4.423755E-02 -2.559602E+00
         2  21  1.005475E+03  8.399659E+01  3.720467E-01  7.410685E+01 -8.069266E-01 -2.886179E+00
         2  22  1.016060E+03  6.577905E+01  1.004654E-01  8.877368E+01  3.765478E-01 -1.287383E+00
         2  23  1.007210E+03  7.684373E+01 -2.527624E-01  8.621368E+01 -6.001509E-01 -1.721134E+00
         2  24  1.001528E+03  8.921120E+01  1.909403E-01  8.315118E+01 -1.564906E+00 -2.159705E+00
         2  25  1.014546E+03  6.738753E+01 -2.474461E-01  1.003596E+02 -3.876283E-02 -3.311659E-01
         2  26  1.005219E+03  8.026035E+01  1.873518E-01  9.626933E+01 -1.136931E+00 -8.536090E-01
         2  27  9.975632E+02  9.361293E+01  5.219384E-01  9.190270E+01 -2.262050E+00 -1.363924E+00
         3   1  1.015717E+03  6.994572E+01  9.179122E-01  1.066269E+02  2.596733E-01 -2.564196E-01
         3   2  9.995164E+02  8.080244E+01 -1.029283E+00  1.020921E+02  1.504261E+00  3.081703E-01
         3   3  9.936990E+02  9.607743E+01  5.668439E-01  9.591107E+01  2.657061E+00  9.160331E-01
         3   4  1.010462E+03  7.179961E+01  5.061100E-01  1.177822E+02  7.807363E-01 -1.332112E+00
         3   5  9.937235E+02  8.448606E+01 -5.136130E-01  1.098783E+02  2.088428E+00 -5.721870E-01
         3   6  9.842840E+02  9.999602E+01  2.881621E-01  1.007624E+02  3.354805E+00  2.085627E-01
         3   7  1.003455E+03  7.283707E+01  2.434295E-02  1.277007E+02  1.338552E+00 -2.331463E+00
         3   8  9.866012E+02  8.733399E+01  6.240049E-02  1.169090E+02  2.699370E+00 -1.411915E+00
         3   9  9.745524E+02  1.033339E+02  4.596785E-01  1.052827E+02  4.058906E+00 -4.916890E-01
         3  10  1.015717E+03  6.994572E+01  9.179122E-01  1.066269E+02  2.338376E-13  1.712025E-13
         3  11  9.995164E+02  8.080244E+01 -1.029283E+00  1.020921E+02  3.674591E-13 -2.192227E-13
         3  12  9.936990E+02  9.607743E+01  5.668439E-01  9.591107E+01  3.674591E-13 -4.848998E-13
         3  13  1.010462E+03  7.179961E+01  5.061100E-01  1.177822E+02  3.382294E-13 -8.351343E-15
         3  14  9.937235E+02  8.448606E+01 -5.136130E-01  1.098783E+02 -7.432695E-13 -1.336215E-13
         3  15  9.842840E+02  9.999602E+01  2.881621E-01  1.007624E+02  1.670269E-14 -2.474085E-13
         3  16  1.003455E+03  7.283707E+01  2.434295E-02  1.277007E+02 -3.340537E-14 -1.252701E-14
         3  17  9.866012E+02  8.733399E+01  6.240049E-02  1.169090E+02  2.338376E-13  4.802022E-14
         3  18  9.745524E+02  1.033339E+02  4.596785E-01  1.052827E+02 -3.319659E-13  9.812828E-14
         3  19  1.015717E+03  6.994572E+01  9.179122E-01  1.066269E+02 -2.596733E-01  2.564196E-01
         3  20  9.995164E+02  8.080244E+01 -1.029283E+00  1.020921E+02 -1.504261E+00 -3.081703E-01
         3  21  9.936990E+02  9.607743E+01  5.668439E-01  9.591107E+01 -2.657061E+00 -9.160331E-01
         3  22  1.010462E+03  7.179961E+01  5.061100E-01  1.177822E+02 -7.807363E-01  1.332112E+00
         3  23  9.937235E+02  8.448606E+01 -5.136130E-01  1.098783E+02 -2.088428E+00  5.721870E-01
         3  24  9.842840E+02  9.999602E+01  2.881621E-01  1.007624E+02 -3.354805E+00 -2.085627E-01
         3  25  1.003455E+03  7.283707E+01  2.434295E-02  1.277007E+02 -1.338552E+00  2.331463E+00
         3  26  9.866012E+02  8.733399E+01  6.240049E-02  1.169090E+02 -2.699370E+00  1.411915E+00
         3  27  9.745524E+02  1.033339E+02  4.596785E-01  1.052827E+02 -4.058906E+00  4.916890E-01
         4   1  1.055017E+03  3.747619E+01  2.251340E-01  1.053087E+02 -2.939937E+00 -1.371101E+00
         4   2  1.035275E+03  4.746696E+01 -9.802917E-01  1.078522E+02 -1.553993E+00 -9.252757E-01
         4   3  1.024066E+03  6.225410E+01  9.565490E-01  1.082247E+02 -3.491230E-01 -3.940403E-01
         4   4  1.063018E+03  3.693463E+01  2.765938E-01  1.176339E+02 -2.899950E+00 -2.896267E+00
         4   5  1.038444E+03  4.888218E+01 -4.081613E-01  1.192173E+02 -1.335591E+00 -2.217601E+00
         4   6  1.019678E+03  6.392704E+01  3.223909E-01  1.192271E+02  1.187222E-01 -1.483437E+00
         4   7  1.070774E+03  3.527838E+01  1.444172E-01  1.302729E+02 -2.856424E+00 -4.397774E+00
         4   8  1.041699E+03  4.868359E+01  1.369924E-01  1.312727E+02 -1.125790E+00 -3.542931E+00
         4   9  1.016174E+03  6.372020E+01  2.724457E-02  1.312084E+02  5.522630E-01 -2.660145E+00
         4  10  1.055017E+03  3.747619E+01  2.251340E-01  1.053087E+02 -6.347020E-13  3.424051E-13
         4  11  1.035275E+03  4.746696E+01 -9.802917E-01  1.078522E+02 -2.672430E-13  7.516208E-14
         4  12  1.024066E+03  6.225410E+01  9.565490E-01  1.082247E+02 -8.351343E-14 -1.868613E-13
         4  13  1.063018E+03  3.693463E+01  2.765938E-01  1.176339E+02  2.359254E-13  2.839457E-13
         4  14  1.038444E+03  4.888218E+01 -4.081613E-01  1.192173E+02 -4.259185E-13 -5.845940E-14
         4  15  1.019678E+03  6.392704E+01  3.223909E-01  1.192271E+02 -2.254863E-13 -4.509725E-13
         4  16  1.070774E+03  3.527838E+01  1.444172E-01  1.302729E+02  5.010806E-13  2.755943E-13
         4  17  1.041699E+03  4.868359E+01  1.369924E-01  1.312727E+02  1.670269E-14 -4.175671E-14
         4  18  1.016174E+03  6.372020E+01  2.724457E-02  1.312084E+02 -4.593238E-14 -5.250907E-13
         4  19  1.055017E+03  3.747619E+01  2.251340E-01  1.053087E+02  2.939937E+00  1.371101E+00
         4  20  1.035275E+03  4.746696E+01 -9.802917E-01  1.078522E+02  1.553993E+00  9.252757E-01
         4  21  1.024066E+03  6.225410E+01  9.565490E-01  1.082247E+02  3.491230E-01  3.940403E-01
         4  22  1.063018E+03  3.693463E+01  2.765938E-01  1.176339E+02  2.899950E+00  2.896267E+00
         4  23  1.038444E+03  4.888218E+01 -4.081613E-01  1.192173E+02  1.335591E+00  2.217601E+00
         4  24  1.019678E+03  6.392704E+01  3.223909E-01  1.192271E+02 -1.187222E-01  1.483437E+00
         4  25  1.070774E+03  3.527838E+01  1.444172E-01  1.302729E+02  2.856424E+00  4.397774E+00
         4  26  1.041699E+03  4.868359E+01  1.369924E-01  1.312727E+02  1.125790E+00  3.542931E+00
         4  27  1.016174E+03  6.372020E+01  2.724457E-02  1.312084E+02 -5.522630E-01  2.660145E+00
         5   1  7.848562E+02 -3.227631E+02 -5.533450E+00  3.475205E+02  1.268550E+01 -6.684201E+01
         5   2  7.942002E+02 -3.851607E+02 -1.974032E+01  3.329448E+02 -3.280794E+00 -8.344859E+01
         5   3  8.199249E+02 -3.968483E+02 -2.786305E+01  3.248352E+02 -1.939145E+01 -9.601372E+01
         5   4  9.516252E+02 -2.892996E+02  3.443451E+00  3.224027E+02  4.139529E+00 -5.812195E+01
         5   5  1.000742E+03 -3.428804E+02 -5.865702E+00  3.015486E+02 -1.041388E+01 -6.879731E+01
         5   6  1.063205E+03 -3.504544E+02 -1.144930E+01  2.861120E+02 -2.524525E+01 -7.634308E+01
         5   7  1.059986E+03 -2.823905E+02 -3.470408E+00  2.858886E+02  5.032531E-02 -4.747126E+01
         5   8  1.150234E+03 -3.248995E+02 -2.380228E+00  2.594786E+02 -1.379119E+01 -5.289367E+01
         5   9  1.251341E+03 -3.253980E+02  4.538700E-01  2.375221E+02 -2.795928E+01 -5.590254E+01
         5  10  7.848562E+02 -3.227631E+02 -5.533450E+00  3.475205E+02 -5.428373E-14  1.085675E-13
         5  11  7.942002E+02 -3.851607E+02 -1.974032E+01  3.329448E+02  7.933776E-14 -6.263507E-14
         5  12  8.199249E+02 -3.968483E+02 -2.786305E+01  3.248352E+02 -1.252701E-13 -2.380133E-13
         5  13  9.516252E+02 -2.892996E+02  3.443451E+00  3.224027E+02 -2.171349E-13 -1.586755E-13
         5  14  1.000742E+03 -3.428804E+02 -5.865702E+00  3.015486E+02 -2.672430E-13 -2.714186E-14
         5  15  1.063205E+03 -3.504544E+02 -1.144930E+01  2.861120E+02 -2.505403E-14 -4.593238E-14
         5  16  1.059986E+03 -2.823905E+02 -3.470408E+00  2.858886E+02 -9.812828E-14 -2.672430E-13
         5  17  1.150234E+03 -3.248995E+02 -2.380228E+00  2.594786E+02  2.839457E-13 -3.758104E-14
         5  18  1.251341E+03 -3.253980E+02  4.538700E-01  2.375221E+02  3.340537E-14  2.484524E-13
         5  19  7.848562E+02 -3.227631E+02 -5.533450E+00  3.475205E+02 -1.268550E+01  6.684201E+01
         5  20  7.942002E+02 -3.851607E+02 -1.974032E+01  3.329448E+02  3.280794E+00  8.344859E+01
         5  21  8.199249E+02 -3.968483E+02 -2.786305E+01  3.248352E+02  1.939145E+01  9.601372E+01
         5  22  9.516252E+02 -2.892996E+02  3.443451E+00  3.224027E+02 -4.139529E+00  5.812195E+01
         5  23  1.000742E+03 -3.428804E+02 -5.865702E+00  3.015486E+02  1.041388E+01  6.879731E+01
         5  24  1.063205E+03 -3.504544E+02 -1.144930E+01  2.861120E+02  2.524525E+01  7.634308E+01
         5  25  1.059986E+03 -2.823905E+02 -3.470408E+00  2.858886E+02 -5.032531E-02  4.747126E+01
         5  26  1.150234E+03 -3.248995E+02 -2.380228E+00  2.594786E+02  1.379119E+01  5.289367E+01
         5  27  1.251341E+03 -3.253980E+02  4.538700E-01  2.375221E+02  2.795928E+01  5.590254E+01
         6   1  8.393516E+02 -3.574242E+02 -2.427302E+01  2.975033E+02 -3.331866E+01 -1.041157E+02
         6   2  7.558829E+02 -1.574659E+02 -3.611870E+01  3.289081E+02 -6.917898E+01 -1.157071E+02
         6   3  7.008005E+02  1.412299E+02 -4.058832E+01  3.962314E+02 -1.053770E+02 -1.178570E+02
         6   4  1.203664E+03 -2.825352E+02  3.059276E+01  2.856114E+02 -4.027365E+01 -8.084651E+01
         6   5  1.228250E+03 -1.770064E+02  1.314417E+01  2.838882E+02 -6.951810E+01 -8.327604E+01
         6   6  1.276759E+03  2.726506E+01  5.736532E+00  3.168692E+02 -9.944731E+01 -7.799906E+01
         6   7  1.293552E+03 -3.485018E+02 -1.687479E+01  2.043942E+02 -3.999620E+01 -5.614258E+01
         6   8  1.437049E+03 -3.185898E+02 -2.232715E+01  1.750463E+02 -6.430085E+01 -5.015255E+01
         6   9  1.600396E+03 -1.907805E+02 -1.521090E+01  1.788871E+02 -8.945249E+01 -3.790439E+01
         6  10  8.393516E+02 -3.574242E+02 -2.427302E+01  2.975033E+02 -2.087836E-13 -2.004322E-13
         6  11  7.558829E+02 -1.574659E+02 -3.611870E+01  3.289081E+02  4.175671E-15 -2.254863E-13
         6  12  7.008005E+02  1.412299E+02 -4.058832E+01  3.962314E+02  2.380133E-13 -3.674591E-13
         6  13  1.203664E+03 -2.825352E+02  3.059276E+01  2.856114E+02 -2.505403E-14 -8.351343E-15
         6  14  1.228250E+03 -1.770064E+02  1.314417E+01  2.838882E+02  4.175671E-14  1.461485E-13
         6  15  1.276759E+03  2.726506E+01  5.736532E+00  3.168692E+02 -1.252701E-13  3.914692E-14
         6  16  1.293552E+03 -3.485018E+02 -1.687479E+01  2.043942E+02  3.714064E-14  2.505403E-13
         6  17  1.437049E+03 -3.185898E+02 -2.232715E+01  1.750463E+02 -2.609795E-13  3.591077E-13
         6  18  1.600396E+03 -1.907805E+02 -1.521090E+01  1.788871E+02 -1.377972E-13  2.380133E-13
         6  19  8.393516E+02 -3.574242E+02 -2.427302E+01  2.975033E+02  3.331866E+01  1.041157E+02
         6  20  7.558829E+02 -1.574659E+02 -3.611870E+01  3.289081E+02  6.917898E+01  1.157071E+02
         6  21  7.008005E+02  1.412299E+02 -4.058832E+01  3.962314E+02  1.053770E+02  1.178570E+02
         6  22  1.203664E+03 -2.825352E+02  3.059276E+01  2.856114E+02  4.027365E+01  8.084651E+01
         6  23  1.228250E+03 -1.770064E+02  1.314417E+01  2.838882E+02  6.951810E+01  8.327604E+01
         6  24  1.276759E+03  2.726506E+01  5.736532E+00  3.168692E+02  9.944731E+01  7.799906E+01
         6  25  1.293552E+03 -3.485018E+02 -1.687479E+01  2.043942E+02  3.999620E+01  5.614258E+01
         6  26  1.437049E+03 -3.185898E+02 -2.232715E+01  1.750463E+02  6.430085E+01  5.015255E+01
         6  27  1.600396E+03 -1.907805E+02 -1.521090E+01  1.788871E+02  8.945249E+01  3.790439E+01
         7   1  1.344832E+03 -3.340017E+02 -2.010033E+01  1.381756E+02 -3.715390E+01 -4.856653E+01
         7   2  1.521589E+03 -2.551985E+02  1.726794E+00  1.193413E+02 -5.779113E+01 -4.116294E+01
         7   3  1.722639E+03 -1.405116E+02  2.208173E+01  6.510082E+01 -7.982336E+01 -2.503027E+01
         7   4  1.463062E+03 -2.751755E+02  7.453596E-01  6.863396E+01 -3.261937E+01 -3.677318E+01
         7   5  1.573453E+03 -2.148281E+02  3.299263E+00  2.651990E+01 -4.631850E+01 -2.657926E+01
         7   6  1.711031E+03 -1.184293E+02  1.239790E+01 -4.554505E+01 -6.152485E+01 -8.776584E+00
         7   7  1.512642E+03 -2.421184E+02  3.098965E+00 -4.407720E+00 -2.726180E+01 -2.481658E+01
         7   8  1.573827E+03 -1.924954E+02 -3.450256E+00 -6.868017E+01 -3.497529E+01 -1.201176E+01
         7   9  1.664112E+03 -1.066585E+02  4.266207E+00 -1.581336E+02 -4.422773E+01  7.418594E+00
         7  10  1.344832E+03 -3.340017E+02 -2.010033E+01  1.381756E+02 -1.085675E-13  8.351343E-14
         7  11  1.521589E+03 -2.551985E+02  1.726794E+00  1.193413E+02  2.505403E-14 -2.171349E-13
         7  12  1.722639E+03 -1.405116E+02  2.208173E+01  6.510082E+01 -1.753782E-13 -4.593238E-14
         7  13  1.463062E+03 -2.751755E+02  7.453596E-01  6.863396E+01 -5.010806E-14 -8.768910E-14
         7  14  1.573453E+03 -2.148281E+02  3.299263E+00  2.651990E+01 -1.670269E-14  1.252701E-14
         7  15  1.711031E+03 -1.184293E+02  1.239790E+01 -4.554505E+01  5.010806E-14 -6.002528E-14
         7  16  1.512642E+03 -2.421184E+02  3.098965E+00 -4.407720E+00 -1.043918E-13 -1.503242E-13
         7  17  1.573827E+03 -1.924954E+02 -3.450256E+00 -6.868017E+01  2.870774E-14 -1.753782E-13
         7  18  1.664112E+03 -1.066585E+02  4.266207E+00 -1.581336E+02  4.175671E-14  1.043918E-13
         7  19  1.344832E+03 -3.340017E+02 -2.010033E+01  1.381756E+02  3.715390E+01  4.856653E+01
         7  20  1.521589E+03 -2.551985E+02  1.726794E+00  1.193413E+02  5.779113E+01  4.116294E+01
         7  21  1.722639E+03 -1.405116E+02  2.208173E+01  6.510082E+01  7.982336E+01  2.503027E+01
         7  22  1.463062E+03 -2.751755E+02  7.453596E-01  6.863396E+01  3.261937E+01  3.677318E+01
         7  23  1.573453E+03 -2.148281E+02  3.299263E+00  2.651990E+01  4.631850E+01  2.657926E+01
         7  24  1.711031E+03 -1.184293E+02  1.239790E+01 -4.554505E+01  6.152485E+01  8.776584E+00
         7  25  1.512642E+03 -2.421184E+02  3.098965E+00 -4.407720E+00  2.726180E+01  2.481658E+01
         7  26  1.573827E+03 -1.924954E+02 -3.450256E+00 -6.868017E+01  3.497529E+01  1.201176E+01
         7  27  1.664112E+03 -1.066585E+02  4.266207E+00 -1.581336E+02  4.422773E+01 -7.418594E+00
         8   1  1.114110E+03 -2.698816E+02 -3.806501E+00  2.628549E+02 -1.080275E+00 -4.416916E+01
         8   2  1.213378E+03 -3.094050E+02 -7.711420E-01  2.288776E+02 -1.365365E+01 -4.928578E+01
         8   3  1.330323E+03 -3.109660E+02  5.516513E+00  1.801632E+02 -2.700093E+01 -4.955931E+01
         8   4  1.199050E+03 -2.300592E+02  2.554100E+00  2.211392E+02 -3.346163E+00 -3.816727E+01
         8   5  1.287223E+03 -2.723254E+02 -8.154381E-01  1.757170E+02 -1.326185E+01 -4.066238E+01
         8   6  1.393373E+03 -2.779998E+02  1.110403E+00  1.175318E+02 -2.400187E+01 -3.899599E+01
         8   7  1.253493E+03 -2.021373E+02  1.591312E+00  1.748110E+02 -4.591709E+00 -3.172338E+01
         8   8  1.336321E+03 -2.445222E+02 -4.077017E+00  1.188400E+02 -1.231031E+01 -3.185235E+01
         8   9  1.437175E+03 -2.514860E+02 -2.422018E+00  5.176836E+01 -2.086123E+01 -2.839795E+01
         8  10  1.114110E+03 -2.698816E+02 -3.806501E+00  2.628549E+02  2.505403E-14 -1.002161E-13
         8  11  1.213378E+03 -3.094050E+02 -7.711420E-01  2.288776E+02  6.681074E-14  1.670269E-14
         8  12  1.330323E+03 -3.109660E+02  5.516513E+00  1.801632E+02  0.000000E+00  1.116992E-13
         8  13  1.199050E+03 -2.300592E+02  2.554100E+00  2.211392E+02  0.000000E+00 -8.351343E-15
         8  14  1.287223E+03 -2.723254E+02 -8.154381E-01  1.757170E+02 -2.004322E-13  6.263507E-14
         8  15  1.393373E+03 -2.779998E+02  1.110403E+00  1.175318E+02  2.338376E-13  2.296619E-14
         8  16  1.253493E+03 -2.021373E+02  1.591312E+00  1.748110E+02  2.087836E-14  1.002161E-13
         8  17  1.336321E+03 -2.445222E+02 -4.077017E+00  1.188400E+02 -1.785100E-13 -2.505403E-14
         8  18  1.437175E+03 -2.514860E+02 -2.422018E+00  5.176836E+01  7.516208E-14 -1.294458E-13
         8  19  1.114110E+03 -2.698816E+02 -3.806501E+00  2.628549E+02  1.080275E+00  4.416916E+01
         8  20  1.213378E+03 -3.094050E+02 -7.711420E-01  2.288776E+02  1.365365E+01  4.928578E+01
         8  21  1.330323E+03 -3.109660E+02  5.516513E+00  1.801632E+02  2.700093E+01  4.955931E+01
         8  22  1.199050E+03 -2.300592E+02  2.554100E+00  2.211392E+02  3.346163E+00  3.816727E+01
         8  23  1.287223E+03 -2.723254E+02 -8.154381E-01  1.757170E+02  1.326185E+01  4.066238E+01
         8  24  1.393373E+03 -2.779998E+02  1.110403E+00  1.175318E+02  2.400187E+01  3.899599E+01
         8  25  1.253493E+03 -2.021373E+02  1.591312E+00  1.748110E+02  4.591709E+00  3.172338E+01
         8  26  1.336321E+03 -2.445222E+02 -4.077017E+00  1.188400E+02  1.231031E+01  3.185235E+01
         8  27  1.437175E+03 -2.514860E+02 -2.422018E+00  5.176836E+01  2.086123E+01  2.839795E+01
         9   1  9.336005E+02  1.504000E+02  1.054384E+00  6.911612E+00  8.105174E+00  1.301265E-01
         9   2  9.358711E+02  1.458597E+02  5.300958E-01  2.871673E+01  7.876909E+00 -2.207077E-02
         9   3  9.403895E+02  1.422311E+02  7.915620E-01  5.045718E+01  7.402649E+00 -1.713253E-01
         9   4  9.529136E+02  1.585006E+02  5.967665E-02  5.106870E+00  8.348146E+00  2.182474E-01
         9   5  9.534012E+02  1.538799E+02 -8.154678E-01  2.288232E+01  8.148227E+00  3.588220E-01
         9   6  9.572466E+02  1.507452E+02 -1.018154E-01  4.057436E+01  7.667617E+00  5.022469E-01
         9   7  9.753840E+02  1.742843E+02  2.043211E+00  4.181477E+00  8.592073E+00  2.511000E-01
         9   8  9.739837E+02  1.695815E+02  7.217904E-01  1.746270E+01  8.420498E+00  7.272188E-01
         9   9  9.771877E+02  1.669969E+02  1.850570E+00  3.064072E+01  7.928507E+00  1.205930E+00
         9  10  9.336005E+02  1.504000E+02  1.054384E+00  6.911612E+00  5.010806E-13  7.848957E-14
         9  11  9.358711E+02  1.458597E+02  5.300958E-01  2.871673E+01  3.340537E-14  1.052400E-13
         9  12  9.403895E+02  1.422311E+02  7.915620E-01  5.045718E+01 -3.925131E-13  2.046731E-13
         9  13  9.529136E+02  1.585006E+02  5.967665E-02  5.106870E+00 -3.079558E-13  2.842066E-13
         9  14  9.534012E+02  1.538799E+02 -8.154678E-01  2.288232E+01  3.340537E-14  2.992782E-13
         9  15  9.572466E+02  1.507452E+02 -1.018154E-01  4.057436E+01 -5.511886E-13  2.673898E-13
         9  16  9.753840E+02  1.742843E+02  2.043211E+00  4.181477E+00 -5.678913E-13  2.431676E-13
         9  17  9.739837E+02  1.695815E+02  7.217904E-01  1.746270E+01  2.004322E-13  1.215512E-13
         9  18  9.771877E+02  1.669969E+02  1.850570E+00  3.064072E+01 -1.461485E-13 -2.511112E-14
         9  19  9.336005E+02  1.504000E+02  1.054384E+00  6.911612E+00 -8.105174E+00 -1.301265E-01
         9  20  9.358711E+02  1.458597E+02  5.300958E-01  2.871673E+01 -7.876909E+00  2.207077E-02
         9  21  9.403895E+02  1.422311E+02  7.915620E-01  5.045718E+01 -7.402649E+00  1.713253E-01
         9  22  9.529136E+02  1.585006E+02  5.967665E-02  5.106870E+00 -8.348146E+00 -2.182474E-01
         9  23  9.534012E+02  1.538799E+02 -8.154678E-01  2.288232E+01 -8.148227E+00 -3.588220E-01
         9  24  9.572466E+02  1.507452E+02 -1.018154E-01  4.057436E+01 -7.667617E+00 -5.022469E-01
         9  25  9.753840E+02  1.742843E+02  2.043211E+00  4.181477E+00 -8.592073E+00 -2.511000E-01
         9  26  9.739837E+02  1.695815E+02  7.217904E-01  1.746270E+01 -8.420498E+00 -7.272188E-01
         9  27  9.771877E+02  1.669969E+02  1.850570E+00  3.064072E+01 -7.928507E+00 -1.205930E+00
        10   1  9.440615E+02  1.368670E+02  2.992931E-01  6.239980E+01  6.943358E+00  4.950953E-02
        10   2  9.543094E+02  1.260770E+02  1.924647E-01  7.811833E+01  6.021578E+00 -9.809150E-02
        10   3  9.648392E+02  1.153591E+02  2.586455E-02  9.366652E+01  4.888740E+00 -2.431706E-01
        10   4  9.606301E+02  1.470859E+02  2.601920E-01  4.957194E+01  7.228493E+00  9.007899E-01
        10   5  9.666278E+02  1.364154E+02 -1.389988E-01  6.273655E+01  6.394658E+00  1.007778E+00
        10   6  9.735840E+02  1.261943E+02 -1.935195E-02  7.566859E+01  5.319490E+00  1.117219E+00
        10   7  9.783124E+02  1.622981E+02  1.569374E+00  3.825779E+01  7.533607E+00  1.634129E+00
        10   8  9.798272E+02  1.517926E+02  5.994697E-01  4.857057E+01  6.786054E+00  2.033273E+00
        10   9  9.830533E+02  1.421456E+02  7.594478E-01  5.858064E+01  5.762535E+00  2.434659E+00
        10  10  9.440615E+02  1.368670E+02  2.992931E-01  6.239980E+01 -6.681074E-14 -1.837295E-13
        10  11  9.543094E+02  1.260770E+02  1.924647E-01  7.811833E+01  3.674591E-13 -1.357093E-14
        10  12  9.648392E+02  1.153591E+02  2.586455E-02  9.366652E+01 -1.544998E-13  1.349264E-13
        10  13  9.606301E+02  1.470859E+02  2.601920E-01  4.957194E+01  3.883374E-13 -3.695469E-13
        10  14  9.666278E+02  1.364154E+02 -1.389988E-01  6.273655E+01  2.380133E-13 -5.010806E-14
        10  15  9.735840E+02  1.261943E+02 -1.935195E-02  7.566859E+01 -4.551482E-13  3.283122E-13
        10  16  9.783124E+02  1.622981E+02  1.569374E+00  3.825779E+01  0.000000E+00 -5.835501E-13
        10  17  9.798272E+02  1.517926E+02  5.994697E-01  4.857057E+01  7.850262E-13 -2.140032E-14
        10  18  9.830533E+02  1.421456E+02  7.594478E-01  5.858064E+01  2.505403E-14  5.060392E-13
        10  19  9.440615E+02  1.368670E+02  2.992931E-01  6.239980E+01 -6.943358E+00 -4.950953E-02
        10  20  9.543094E+02  1.260770E+02  1.924647E-01  7.811833E+01 -6.021578E+00  9.809150E-02
        10  21  9.648392E+02  1.153591E+02  2.586455E-02  9.366652E+01 -4.888740E+00  2.431706E-01
        10  22  9.606301E+02  1.470859E+02  2.601920E-01  4.957194E+01 -7.228493E+00 -9.007899E-01
        10  23  9.666278E+02  1.364154E+02 -1.389988E-01  6.273655E+01 -6.394658E+00 -1.007778E+00
        10  24  9.735840E+02  1.261943E+02 -1.935195E-02  7.566859E+01 -5.319490E+00 -1.117219E+00
        10  25  9.783124E+02  1.622981E+02  1.569374E+00  3.825779E+01 -7.533607E+00 -1.634129E+00
        10  26  9.798272E+02  1.517926E+02  5.994697E-01  4.857057E+01 -6.786054E+00 -2.033273E+00
        10  27  9.830533E+02  1.421456E+02  7.594478E-01  5.858064E+01 -5.762535E+00 -2.434659E+00
        11   1  9.863873E+02  1.734674E+02  2.007354E+00  3.116303E+01  7.784002E+00  2.035894E+00
        11   2  9.887071E+02  1.638315E+02  1.865400E+00  3.942118E+01  7.088296E+00  2.559170E+00
        11   3  9.908884E+02  1.542776E+02  2.160055E+00  4.810156E+01  6.278950E+00  3.083223E+00
        11   4  9.909539E+02  1.983426E+02  2.722127E+00  1.808027E+01  5.833129E+00  2.632786E+00
        11   5  9.916488E+02  1.874428E+02  2.065309E+00  2.297486E+01  5.335034E+00  3.273334E+00
        11   6  9.926186E+02  1.768255E+02  2.091618E+00  2.832994E+01  4.708702E+00  3.914414E+00
        11   7  1.003366E+03  2.404572E+02  1.304666E+01  4.690900E+00  3.932235E+00  2.934705E+00
        11   8  1.002213E+03  2.279325E+02  1.141184E+01  5.802031E+00  3.643891E+00  3.714891E+00
        11   9  1.001816E+03  2.159206E+02  1.073579E+01  7.420571E+00  3.210071E+00  4.495225E+00
        11  10  9.863873E+02  1.734674E+02  2.007354E+00  3.116303E+01 -7.015128E-13 -6.086041E-13
        11  11  9.887071E+02  1.638315E+02  1.865400E+00  3.942118E+01 -9.019450E-13 -1.414509E-13
        11  12  9.908884E+02  1.542776E+02  2.160055E+00  4.810156E+01 -6.472291E-14  3.245280E-13
        11  13  9.909539E+02  1.983426E+02  2.722127E+00  1.808027E+01  2.275741E-13 -4.697630E-13
        11  14  9.916488E+02  1.874428E+02  2.065309E+00  2.297486E+01 -3.173510E-13 -3.904253E-13
        11  15  9.926186E+02  1.768255E+02  2.091618E+00  2.832994E+01  1.294458E-13 -3.186559E-13
        11  16  1.003366E+03  2.404572E+02  1.304666E+01  4.690900E+00  5.678913E-13  3.502344E-13
        11  17  1.002213E+03  2.279325E+02  1.141184E+01  5.802031E+00 -4.342698E-13 -1.832076E-13
        11  18  1.001816E+03  2.159206E+02  1.073579E+01  7.420571E+00 -2.505403E-14 -6.512090E-13
        11  19  9.863873E+02  1.734674E+02  2.007354E+00  3.116303E+01 -7.784002E+00 -2.035894E+00
        11  20  9.887071E+02  1.638315E+02  1.865400E+00  3.942118E+01 -7.088296E+00 -2.559170E+00
        11  21  9.908884E+02  1.542776E+02  2.160055E+00  4.810156E+01 -6.278950E+00 -3.083223E+00
        11  22  9.909539E+02  1.983426E+02  2.722127E+00  1.808027E+01 -5.833129E+00 -2.632786E+00
        11  23  9.916488E+02  1.874428E+02  2.065309E+00  2.297486E+01 -5.335034E+00 -3.273334E+00
        11  24  9.926186E+02  1.768255E+02  2.091618E+00  2.832994E+01 -4.708702E+00 -3.914414E+00
        11  25  1.003366E+03  2.404572E+02  1.304666E+01  4.690900E+00 -3.932235E+00 -2.934705E+00
        11  26  1.002213E+03  2.279325E+02  1.141184E+01  5.802031E+00 -3.643891E+00 -3.714891E+00
        11  27  1.001816E+03  2.159206E+02  1.073579E+01  7.420571E+00 -3.210071E+00 -4.495225E+00
        12   1  9.854170E+02  1.860165E+02  2.809502E+00  3.436101E+00  8.715962E+00  3.093421E-01
        12   2  9.855477E+02  1.821646E+02  2.285907E+00  1.399657E+01  8.487625E+00  9.305060E-01
        12   3  9.863972E+02  1.787962E+02  2.664828E+00  2.471397E+01  8.120600E+00  1.552607E+00
        12   4  9.900219E+02  2.107527E+02  3.101547E+00  1.822059E+00  6.465676E+00  4.291756E-01
        12   5  9.896112E+02  2.064874E+02  2.375176E+00  8.155822E+00  6.360719E+00  1.192445E+00