    1C
    1UUSER                                                              
    1UDATE              03.april.2020                                   
    1UTIME              21:41:52                                        
    1UHOST                                                              
    1UPGM               CalculiX                                        
    1UVERSION           Version 2.16                             
    1UCOMPILETIME       Mo 25. Nov 18:56:47 CET 2019                    
    1UDIR                                                               
    1UDBN                                                               
    1UMAT    1STEEL                                                     
    2C                           901                                     1
 -1         1 0.00000E+00 5.00000E-01 0.00000E+00
 -1         3 5.00000E-01 0.00000E+00 0.00000E+00
 -1         4 2.22222E+00 0.00000E+00 0.00000E+00
 -1         5 2.22222E+00 1.11111E+00 0.00000E+00
 -1         6 1.11111E+00 1.11111E+00 0.00000E+00
 -1         7 0.00000E+00 1.11111E+00 0.00000E+00
 -1         8 1.11111E+00 0.00000E+00 0.00000E+00
 -1         9 9.75450E-02 4.90393E-01 0.00000E+00
 -1        10 1.91342E-01 4.61940E-01 0.00000E+00
 -1        11 2.77785E-01 4.15735E-01 0.00000E+00
 -1        12 3.53553E-01 3.53553E-01 0.00000E+00
 -1        13 4.15735E-01 2.77785E-01 0.00000E+00
 -1        14 4.61940E-01 1.91342E-01 0.00000E+00
 -1        15 4.90393E-01 9.75450E-02 0.00000E+00
 -1        16 4.90090E-02 4.97592E-01 0.00000E+00
 -1        17 1.45142E-01 4.78470E-01 0.00000E+00
 -1        18 2.35698E-01 4.40961E-01 0.00000E+00
 -1        19 3.17197E-01 3.86505E-01 0.00000E+00
 -1        20 3.86505E-01 3.17197E-01 0.00000E+00
 -1        21 4.40961E-01 2.35698E-01 0.00000E+00
 -1        22 4.78470E-01 1.45142E-01 0.00000E+00
 -1        23 4.97592E-01 4.90090E-02 0.00000E+00
 -1        24 5.76389E-01 0.00000E+00 0.00000E+00
 -1        25 6.52778E-01 0.00000E+00 0.00000E+00
 -1        26 7.29167E-01 0.00000E+00 0.00000E+00
 -1        27 8.05555E-01 0.00000E+00 0.00000E+00
 -1        28 8.81944E-01 0.00000E+00 0.00000E+00
 -1        29 9.58333E-01 0.00000E+00 0.00000E+00
 -1        30 1.03472E+00 0.00000E+00 0.00000E+00
 -1        31 5.38194E-01 0.00000E+00 0.00000E+00
 -1        32 6.14583E-01 0.00000E+00 0.00000E+00
 -1        33 6.90972E-01 0.00000E+00 0.00000E+00
 -1        34 7.67361E-01 0.00000E+00 0.00000E+00
 -1        35 8.43750E-01 0.00000E+00 0.00000E+00
 -1        36 9.20139E-01 0.00000E+00 0.00000E+00
 -1        37 9.96528E-01 0.00000E+00 0.00000E+00
 -1        38 1.07292E+00 0.00000E+00 0.00000E+00
 -1        39 2.22222E+00 9.25930E-02 0.00000E+00
 -1        40 2.22222E+00 1.85185E-01 0.00000E+00
 -1        41 2.22222E+00 2.77778E-01 0.00000E+00
 -1        42 2.22222E+00 3.70370E-01 0.00000E+00
 -1        43 2.22222E+00 4.62963E-01 0.00000E+00
 -1        44 2.22222E+00 5.55555E-01 0.00000E+00
 -1        45 2.22222E+00 6.48148E-01 0.00000E+00
 -1        46 2.22222E+00 7.40741E-01 0.00000E+00
 -1        47 2.22222E+00 8.33333E-01 0.00000E+00
 -1        48 2.22222E+00 9.25926E-01 0.00000E+00
 -1        49 2.22222E+00 1.01852E+00 0.00000E+00
 -1        50 2.22222E+00 4.62960E-02 0.00000E+00
 -1        51 2.22222E+00 1.38889E-01 0.00000E+00
 -1        52 2.22222E+00 2.31481E-01 0.00000E+00
 -1        53 2.22222E+00 3.24074E-01 0.00000E+00
 -1        54 2.22222E+00 4.16667E-01 0.00000E+00
 -1        55 2.22222E+00 5.09259E-01 0.00000E+00
 -1        56 2.22222E+00 6.01852E-01 0.00000E+00
 -1        57 2.22222E+00 6.94444E-01 0.00000E+00
 -1        58 2.22222E+00 7.87037E-01 0.00000E+00
 -1        59 2.22222E+00 8.79630E-01 0.00000E+00
 -1        60 2.22222E+00 9.72222E-01 0.00000E+00
 -1        61 2.22222E+00 1.06482E+00 0.00000E+00
 -1        62 2.12963E+00 1.11111E+00 0.00000E+00
 -1        63 2.03704E+00 1.11111E+00 0.00000E+00
 -1        64 1.94444E+00 1.11111E+00 0.00000E+00
 -1        65 1.85185E+00 1.11111E+00 0.00000E+00
 -1        66 1.75926E+00 1.11111E+00 0.00000E+00
 -1        67 1.66667E+00 1.11111E+00 0.00000E+00
 -1        68 1.57407E+00 1.11111E+00 0.00000E+00
 -1        69 1.48148E+00 1.11111E+00 0.00000E+00
 -1        70 1.38889E+00 1.11111E+00 0.00000E+00
 -1        71 1.29630E+00 1.11111E+00 0.00000E+00
 -1        72 1.20370E+00 1.11111E+00 0.00000E+00
 -1        73 2.17593E+00 1.11111E+00 0.00000E+00
 -1        74 2.08333E+00 1.11111E+00 0.00000E+00
 -1        75 1.99074E+00 1.11111E+00 0.00000E+00
 -1        76 1.89815E+00 1.11111E+00 0.00000E+00
 -1        77 1.80555E+00 1.11111E+00 0.00000E+00
 -1        78 1.71296E+00 1.11111E+00 0.00000E+00
 -1        79 1.62037E+00 1.11111E+00 0.00000E+00
 -1        80 1.52778E+00 1.11111E+00 0.00000E+00
 -1        81 1.43518E+00 1.11111E+00 0.00000E+00
 -1        82 1.34259E+00 1.11111E+00 0.00000E+00
 -1        83 1.25000E+00 1.11111E+00 0.00000E+00
 -1        84 1.15741E+00 1.11111E+00 0.00000E+00
 -1        85 1.01852E+00 1.11111E+00 0.00000E+00
 -1        86 9.25926E-01 1.11111E+00 0.00000E+00
 -1        87 8.33333E-01 1.11111E+00 0.00000E+00
 -1        88 7.40741E-01 1.11111E+00 0.00000E+00
 -1        89 6.48148E-01 1.11111E+00 0.00000E+00
 -1        90 5.55556E-01 1.11111E+00 0.00000E+00
 -1        91 4.62963E-01 1.11111E+00 0.00000E+00
 -1        92 3.70370E-01 1.11111E+00 0.00000E+00
 -1        93 2.77778E-01 1.11111E+00 0.00000E+00
 -1        94 1.85185E-01 1.11111E+00 0.00000E+00
 -1        95 9.25930E-02 1.11111E+00 0.00000E+00
 -1        96 1.06482E+00 1.11111E+00 0.00000E+00
 -1        97 9.72222E-01 1.11111E+00 0.00000E+00
 -1        98 8.79630E-01 1.11111E+00 0.00000E+00
 -1        99 7.87037E-01 1.11111E+00 0.00000E+00
 -1       100 6.94444E-01 1.11111E+00 0.00000E+00
 -1       101 6.01852E-01 1.11111E+00 0.00000E+00
 -1       102 5.09259E-01 1.11111E+00 0.00000E+00
 -1       103 4.16667E-01 1.11111E+00 0.00000E+00
 -1       104 3.24074E-01 1.11111E+00 0.00000E+00
 -1       105 2.31481E-01 1.11111E+00 0.00000E+00
 -1       106 1.38889E-01 1.11111E+00 0.00000E+00
 -1       107 4.62960E-02 1.11111E+00 0.00000E+00
 -1       108 0.00000E+00 1.03472E+00 0.00000E+00
 -1       109 0.00000E+00 9.58333E-01 0.00000E+00
 -1       110 0.00000E+00 8.81944E-01 0.00000E+00
 -1       111 0.00000E+00 8.05556E-01 0.00000E+00
 -1       112 0.00000E+00 7.29167E-01 0.00000E+00
 -1       113 0.00000E+00 6.52778E-01 0.00000E+00
 -1       114 0.00000E+00 5.76389E-01 0.00000E+00
 -1       115 0.00000E+00 1.07292E+00 0.00000E+00
 -1       116 0.00000E+00 9.96528E-01 0.00000E+00
 -1       117 0.00000E+00 9.20139E-01 0.00000E+00
 -1       118 0.00000E+00 8.43750E-01 0.00000E+00
 -1       119 0.00000E+00 7.67361E-01 0.00000E+00
 -1       120 0.00000E+00 6.90972E-01 0.00000E+00
 -1       121 0.00000E+00 6.14583E-01 0.00000E+00
 -1       122 0.00000E+00 5.38194E-01 0.00000E+00
 -1       123 1.20370E+00 0.00000E+00 0.00000E+00
 -1       124 1.29630E+00 0.00000E+00 0.00000E+00
 -1       125 1.38889E+00 0.00000E+00 0.00000E+00
 -1       126 1.48148E+00 0.00000E+00 0.00000E+00
 -1       127 1.57407E+00 0.00000E+00 0.00000E+00
 -1       128 1.66667E+00 0.00000E+00 0.00000E+00
 -1       129 1.75926E+00 0.00000E+00 0.00000E+00
 -1       130 1.85185E+00 0.00000E+00 0.00000E+00
 -1       131 1.94444E+00 0.00000E+00 0.00000E+00
 -1       132 2.03704E+00 0.00000E+00 0.00000E+00
 -1       133 2.12963E+00 0.00000E+00 0.00000E+00
 -1       134 1.15741E+00 0.00000E+00 0.00000E+00
 -1       135 1.25000E+00 0.00000E+00 0.00000E+00
 -1       136 1.34259E+00 0.00000E+00 0.00000E+00
 -1       137 1.43518E+00 0.00000E+00 0.00000E+00
 -1       138 1.52778E+00 0.00000E+00 0.00000E+00
 -1       139 1.62037E+00 0.00000E+00 0.00000E+00
 -1       140 1.71296E+00 0.00000E+00 0.00000E+00
 -1       141 1.80555E+00 0.00000E+00 0.00000E+00
 -1       142 1.89815E+00 0.00000E+00 0.00000E+00
 -1       143 1.99074E+00 0.00000E+00 0.00000E+00
 -1       144 2.08333E+00 0.00000E+00 0.00000E+00
 -1       145 2.17593E+00 0.00000E+00 0.00000E+00
 -1       146 1.11111E+00 9.25930E-02 0.00000E+00
 -1       147 1.11111E+00 1.85185E-01 0.00000E+00
 -1       148 1.11111E+00 2.77778E-01 0.00000E+00
 -1       149 1.11111E+00 3.70370E-01 0.00000E+00
 -1       150 1.11111E+00 4.62963E-01 0.00000E+00
 -1       151 1.11111E+00 5.55555E-01 0.00000E+00
 -1       152 1.11111E+00 6.48148E-01 0.00000E+00
 -1       153 1.11111E+00 7.40741E-01 0.00000E+00
 -1       154 1.11111E+00 8.33333E-01 0.00000E+00
 -1       155 1.11111E+00 9.25926E-01 0.00000E+00
 -1       156 1.11111E+00 1.01852E+00 0.00000E+00
 -1       157 1.11111E+00 4.62960E-02 0.00000E+00
 -1       158 1.11111E+00 1.38889E-01 0.00000E+00
 -1       159 1.11111E+00 2.31481E-01 0.00000E+00
 -1       160 1.11111E+00 3.24074E-01 0.00000E+00
 -1       161 1.11111E+00 4.16667E-01 0.00000E+00
 -1       162 1.11111E+00 5.09259E-01 0.00000E+00
 -1       163 1.11111E+00 6.01852E-01 0.00000E+00
 -1       164 1.11111E+00 6.94444E-01 0.00000E+00
 -1       165 1.11111E+00 7.87037E-01 0.00000E+00
 -1       166 1.11111E+00 8.79630E-01 0.00000E+00
 -1       167 1.11111E+00 9.72222E-01 0.00000E+00
 -1       168 1.11111E+00 1.06482E+00 0.00000E+00
 -1       169 5.42427E-01 9.23764E-01 0.00000E+00
 -1       170 5.54659E-01 4.43210E-01 0.00000E+00
 -1       171 9.41416E-01 3.59940E-01 0.00000E+00
 -1       172 9.24697E-01 9.22601E-01 0.00000E+00
 -1       173 6.44235E-01 1.76690E-01 0.00000E+00
 -1       174 9.51427E-01 1.78502E-01 0.00000E+00
 -1       175 1.82709E-01 9.45909E-01 0.00000E+00
 -1       176 1.20960E-01 6.27694E-01 0.00000E+00
 -1       177 9.32020E-01 5.44470E-01 0.00000E+00
 -1       178 3.28540E-01 5.86257E-01 0.00000E+00
 -1       179 7.80392E-01 3.40039E-01 0.00000E+00
 -1       180 3.60389E-01 9.37472E-01 0.00000E+00
 -1       181 9.25948E-01 7.32324E-01 0.00000E+00
 -1       182 7.33208E-01 9.17963E-01 0.00000E+00
 -1       183 7.97611E-01 1.71673E-01 0.00000E+00
 -1       184 1.99678E-01 7.51312E-01 0.00000E+00
 -1       185 6.62343E-01 3.11672E-01 0.00000E+00
 -1       186 4.03690E-01 4.59610E-01 0.00000E+00
 -1       187 7.52217E-01 5.17954E-01 0.00000E+00
 -1       188 4.98210E-01 7.03054E-01 0.00000E+00
 -1       189 7.31487E-01 7.15674E-01 0.00000E+00
 -1       190 3.51527E-01 8.04776E-01 0.00000E+00
 -1       191 5.20319E-01 8.13409E-01 0.00000E+00
 -1       192 4.51408E-01 9.30618E-01 0.00000E+00
 -1       193 3.55958E-01 8.71124E-01 0.00000E+00
 -1       194 4.24869E-01 7.53915E-01 0.00000E+00
 -1       195 4.38138E-01 8.42267E-01 0.00000E+00
 -1       196 9.46421E-01 2.69221E-01 0.00000E+00
 -1       197 8.60904E-01 3.49989E-01 0.00000E+00
 -1       198 7.89002E-01 2.55856E-01 0.00000E+00
 -1       199 8.74519E-01 1.75088E-01 0.00000E+00
 -1       200 8.67711E-01 2.62538E-01 0.00000E+00
 -1       201 9.98390E-02 7.78434E-01 0.00000E+00
 -1       202 1.91193E-01 8.48611E-01 0.00000E+00
 -1       203 9.13540E-02 9.52121E-01 0.00000E+00
 -1       204 9.55970E-02 8.65277E-01 0.00000E+00
 -1       205 6.48506E-01 8.83450E-02 0.00000E+00
 -1       206 5.53087E-01 1.84016E-01 0.00000E+00
 -1       207 5.69450E-01 9.29450E-02 0.00000E+00
 -1       208 1.83947E-01 1.02851E+00 0.00000E+00
 -1       209 9.19730E-02 1.03162E+00 0.00000E+00
 -1       210 2.75603E-01 7.78044E-01 0.00000E+00
 -1       211 2.71549E-01 9.41690E-01 0.00000E+00
 -1       212 2.73576E-01 8.59867E-01 0.00000E+00
 -1       213 3.65380E-01 1.02429E+00 0.00000E+00
 -1       214 2.74663E-01 1.02640E+00 0.00000E+00
 -1       215 8.01583E-01 8.58370E-02 0.00000E+00
 -1       216 7.20923E-01 1.74182E-01 0.00000E+00
 -1       217 7.25045E-01 8.70910E-02 0.00000E+00
 -1       218 6.53438E-01 4.80582E-01 0.00000E+00
 -1       219 6.08501E-01 3.77441E-01 0.00000E+00
 -1       220 7.21368E-01 3.25855E-01 0.00000E+00
 -1       221 7.66304E-01 4.28997E-01 0.00000E+00
 -1       222 6.87403E-01 4.03219E-01 0.00000E+00
 -1       223 5.26435E-01 5.73132E-01 0.00000E+00
 -1       224 4.13375E-01 6.44655E-01 0.00000E+00
 -1       225 3.66115E-01 5.22933E-01 0.00000E+00
 -1       226 4.79175E-01 4.51410E-01 0.00000E+00
 -1       227 4.46275E-01 5.48033E-01 0.00000E+00
 -1       228 2.59941E-01 5.24099E-01 0.00000E+00
 -1       229 3.78622E-01 4.06582E-01 0.00000E+00
 -1       230 3.21950E-01 4.69334E-01 0.00000E+00
 -1       231 1.56151E-01 5.44817E-01 0.00000E+00
 -1       232 6.04800E-02 6.40236E-01 0.00000E+00
 -1       233 7.90130E-02 5.65314E-01 0.00000E+00
 -1       234 1.03127E+00 1.81843E-01 0.00000E+00
 -1       235 1.02626E+00 3.65155E-01 0.00000E+00
 -1       236 1.02877E+00 2.73499E-01 0.00000E+00
 -1       237 8.28718E-01 7.23999E-01 0.00000E+00
 -1       238 7.41852E-01 6.16814E-01 0.00000E+00
 -1       239 8.42118E-01 5.31212E-01 0.00000E+00
 -1       240 9.28984E-01 6.38397E-01 0.00000E+00
 -1       241 8.35418E-01 6.27606E-01 0.00000E+00
 -1       242 1.02156E+00 5.50013E-01 0.00000E+00
 -1       243 1.01853E+00 7.36532E-01 0.00000E+00
 -1       244 1.02005E+00 6.43272E-01 0.00000E+00
 -1       245 1.01790E+00 9.24263E-01 0.00000E+00
 -1       246 9.25323E-01 8.27462E-01 0.00000E+00
 -1       247 1.01822E+00 8.30398E-01 0.00000E+00
 -1       248 9.25312E-01 1.01686E+00 0.00000E+00
 -1       249 1.01821E+00 1.01769E+00 0.00000E+00
 -1       250 9.36718E-01 4.52205E-01 0.00000E+00
 -1       251 1.02391E+00 4.57584E-01 0.00000E+00
 -1       252 7.36974E-01 1.01454E+00 0.00000E+00
 -1       253 8.28953E-01 9.20282E-01 0.00000E+00
 -1       254 8.31143E-01 1.01570E+00 0.00000E+00
 -1       255 6.14849E-01 7.09364E-01 0.00000E+00
 -1       256 7.32348E-01 8.16819E-01 0.00000E+00
 -1       257 6.37817E-01 9.20864E-01 0.00000E+00
 -1       258 6.26333E-01 8.15114E-01 0.00000E+00
 -1       259 8.28835E-01 8.22141E-01 0.00000E+00
 -1       260 5.48991E-01 1.01744E+00 0.00000E+00
 -1       261 4.57185E-01 1.02086E+00 0.00000E+00
 -1       262 6.42983E-01 1.01599E+00 0.00000E+00
 -1       263 8.51511E-01 4.40601E-01 0.00000E+00
 -1       264 5.08299E-01 3.17276E-01 0.00000E+00
 -1       265 6.53289E-01 2.44181E-01 0.00000E+00
 -1       266 5.80794E-01 2.80728E-01 0.00000E+00
 -1       267 6.34143E-01 5.94973E-01 0.00000E+00
 -1       268 1.60319E-01 6.89503E-01 0.00000E+00
 -1       269 2.64109E-01 6.68785E-01 0.00000E+00
 -1       270 2.10130E-01 6.06801E-01 0.00000E+00
 -1       271 9.54880E-01 8.92510E-02 0.00000E+00
 -1       272 1.03300E+00 9.09220E-02 0.00000E+00
 -1       273 8.78232E-01 8.75440E-02 0.00000E+00
 -1       274 8.01600E-02 7.09335E-01 0.00000E+00
 -1       275 4.47455E-01 3.64598E-01 0.00000E+00
 -1       276 7.21145E-01 2.50019E-01 0.00000E+00
 -1       277 3.44489E-01 7.11350E-01 0.00000E+00
 -1       278 5.09265E-01 7.58231E-01 0.00000E+00
 -1       279 4.79228E-01 8.27838E-01 0.00000E+00
 -1       280 4.31504E-01 7.98091E-01 0.00000E+00
 -1       281 4.61540E-01 7.28484E-01 0.00000E+00
 -1       282 5.31373E-01 8.68587E-01 0.00000E+00
 -1       283 4.96917E-01 9.27191E-01 0.00000E+00
 -1       284 4.44773E-01 8.86442E-01 0.00000E+00
 -1       285 4.05898E-01 9.34045E-01 0.00000E+00
 -1       286 3.58173E-01 9.04298E-01 0.00000E+00
 -1       287 3.97048E-01 8.56695E-01 0.00000E+00
 -1       288 3.53743E-01 8.37950E-01 0.00000E+00
 -1       289 3.88198E-01 7.79346E-01 0.00000E+00
 -1       290 9.48924E-01 2.23861E-01 0.00000E+00
 -1       291 9.07066E-01 2.65880E-01 0.00000E+00
 -1       292 8.71115E-01 2.18813E-01 0.00000E+00
 -1       293 9.12973E-01 1.76795E-01 0.00000E+00
 -1       294 9.43919E-01 3.14580E-01 0.00000E+00
 -1       295 9.01160E-01 3.54964E-01 0.00000E+00
 -1       296 8.64308E-01 3.06264E-01 0.00000E+00
 -1       297 8.20648E-01 3.45014E-01 0.00000E+00
 -1       298 7.84697E-01 2.97948E-01 0.00000E+00
 -1       299 8.28357E-01 2.59197E-01 0.00000E+00
 -1       300 7.93306E-01 2.13765E-01 0.00000E+00
 -1       301 8.36065E-01 1.73380E-01 0.00000E+00
 -1       302 4.77980E-02 8.73611E-01 0.00000E+00
 -1       303 9.34760E-02 9.08699E-01 0.00000E+00
 -1       304 4.56770E-02 9.55227E-01 0.00000E+00
 -1       305 4.99200E-02 7.91995E-01 0.00000E+00
 -1       306 9.77180E-02 8.21856E-01 0.00000E+00
 -1       307 1.49759E-01 7.64873E-01 0.00000E+00
 -1       308 1.95436E-01 7.99961E-01 0.00000E+00
 -1       309 1.43395E-01 8.56944E-01 0.00000E+00
 -1       310 1.86951E-01 8.97260E-01 0.00000E+00
 -1       311 1.37032E-01 9.49015E-01 0.00000E+00
 -1       312 6.50642E-01 4.41730E-02 0.00000E+00
 -1       313 6.08978E-01 9.06450E-02 0.00000E+00
 -1       314 5.72919E-01 4.64730E-02 0.00000E+00
 -1       315 6.46371E-01 1.32518E-01 0.00000E+00
 -1       316 5.98661E-01 1.80353E-01 0.00000E+00
 -1       317 5.61268E-01 1.38481E-01 0.00000E+00
 -1       318 5.07514E-01 1.87679E-01 0.00000E+00
 -1       319 5.29921E-01 9.52450E-02 0.00000E+00
 -1       320 4.59870E-02 1.03317E+00 0.00000E+00
 -1       321 9.22830E-02 1.07136E+00 0.00000E+00
 -1       322 9.16640E-02 9.91869E-01 0.00000E+00
 -1       323 1.83328E-01 9.87209E-01 0.00000E+00
 -1       324 1.37960E-01 1.03006E+00 0.00000E+00
 -1       325 1.84566E-01 1.06981E+00 0.00000E+00
 -1       326 2.37640E-01 7.64678E-01 0.00000E+00
 -1       327 2.74589E-01 8.18956E-01 0.00000E+00
 -1       328 2.32385E-01 8.54239E-01 0.00000E+00
 -1       329 3.13565E-01 7.91410E-01 0.00000E+00
 -1       330 3.14767E-01 8.65496E-01 0.00000E+00
 -1       331 3.15969E-01 9.39581E-01 0.00000E+00
 -1       332 2.72562E-01 9.00779E-01 0.00000E+00
 -1       333 2.27129E-01 9.43800E-01 0.00000E+00
 -1       334 3.62884E-01 9.80882E-01 0.00000E+00
 -1       335 3.20021E-01 1.02535E+00 0.00000E+00
 -1       336 2.73106E-01 9.84046E-01 0.00000E+00
 -1       337 3.67875E-01 1.06770E+00 0.00000E+00
 -1       338 2.76220E-01 1.06876E+00 0.00000E+00
 -1       339 2.29305E-01 1.02745E+00 0.00000E+00
 -1       340 6.86776E-01 8.77180E-02 0.00000E+00
 -1       341 7.22984E-01 1.30636E-01 0.00000E+00
 -1       342 6.82579E-01 1.75436E-01 0.00000E+00
 -1       343 7.27106E-01 4.35450E-02 0.00000E+00
 -1       344 8.03569E-01 4.29180E-02 0.00000E+00
 -1       345 7.63314E-01 8.64640E-02 0.00000E+00
 -1       346 7.99597E-01 1.28755E-01 0.00000E+00
 -1       347 7.59267E-01 1.72928E-01 0.00000E+00
 -1       348 7.02827E-01 4.99268E-01 0.00000E+00
 -1       349 6.70420E-01 4.41901E-01 0.00000E+00
 -1       350 7.26854E-01 4.16108E-01 0.00000E+00
 -1       351 7.59260E-01 4.73475E-01 0.00000E+00
 -1       352 6.04049E-01 4.61896E-01 0.00000E+00
 -1       353 5.81580E-01 4.10326E-01 0.00000E+00
 -1       354 6.47952E-01 3.90330E-01 0.00000E+00
 -1       355 6.35422E-01 3.44556E-01 0.00000E+00
 -1       356 6.91856E-01 3.18763E-01 0.00000E+00
 -1       357 7.04385E-01 3.64537E-01 0.00000E+00
 -1       358 7.50880E-01 3.32947E-01 0.00000E+00
 -1       359 7.73348E-01 3.84518E-01 0.00000E+00
 -1       360 5.40547E-01 5.08171E-01 0.00000E+00
 -1       361 4.86355E-01 5.60582E-01 0.00000E+00
 -1       362 4.62725E-01 4.99721E-01 0.00000E+00
 -1       363 5.16917E-01 4.47310E-01 0.00000E+00
 -1       364 5.12323E-01 6.38093E-01 0.00000E+00
 -1       365 4.55793E-01 6.73855E-01 0.00000E+00
 -1       366 4.29825E-01 5.96344E-01 0.00000E+00
 -1       367 3.70958E-01 6.15456E-01 0.00000E+00
 -1       368 3.47327E-01 5.54595E-01 0.00000E+00
 -1       369 4.06195E-01 5.35483E-01 0.00000E+00
 -1       370 3.84902E-01 4.91272E-01 0.00000E+00
 -1       371 4.41432E-01 4.55510E-01 0.00000E+00
 -1       372 2.94240E-01 5.55178E-01 0.00000E+00
 -1       373 2.90945E-01 4.96716E-01 0.00000E+00
 -1       374 3.44033E-01 4.96134E-01 0.00000E+00
 -1       375 2.25641E-01 4.93019E-01 0.00000E+00
 -1       376 2.99868E-01 4.42534E-01 0.00000E+00
 -1       377 3.66088E-01 3.80067E-01 0.00000E+00
 -1       378 3.50286E-01 4.37958E-01 0.00000E+00
 -1       379 3.91156E-01 4.33096E-01 0.00000E+00
 -1       380 1.73746E-01 5.03378E-01 0.00000E+00
 -1       381 1.17582E-01 5.55066E-01 0.00000E+00
 -1       382 8.82790E-02 5.27853E-01 0.00000E+00
 -1       383 1.38555E-01 5.86256E-01 0.00000E+00
 -1       384 9.07200E-02 6.33965E-01 0.00000E+00
 -1       385 6.97460E-02 6.02775E-01 0.00000E+00
 -1       386 3.02400E-02 6.46507E-01 0.00000E+00
 -1       387 3.95060E-02 5.70852E-01 0.00000E+00
 -1       388 9.91348E-01 1.80173E-01 0.00000E+00
 -1       389 1.03002E+00 2.27671E-01 0.00000E+00
 -1       390 9.87594E-01 2.71360E-01 0.00000E+00
 -1       391 1.07119E+00 1.83514E-01 0.00000E+00
 -1       392 1.06994E+00 2.75638E-01 0.00000E+00
 -1       393 1.06869E+00 3.67763E-01 0.00000E+00
 -1       394 1.02752E+00 3.19327E-01 0.00000E+00
 -1       395 9.83840E-01 3.62547E-01 0.00000E+00
 -1       396 8.77333E-01 7.28162E-01 0.00000E+00
 -1       397 8.32068E-01 6.75802E-01 0.00000E+00
 -1       398 8.82201E-01 6.33001E-01 0.00000E+00
 -1       399 9.27466E-01 6.85361E-01 0.00000E+00
 -1       400 7.80103E-01 7.19837E-01 0.00000E+00
 -1       401 7.36670E-01 6.66244E-01 0.00000E+00
 -1       402 7.88635E-01 6.22210E-01 0.00000E+00
 -1       403 7.47034E-01 5.67384E-01 0.00000E+00
 -1       404 7.97167E-01 5.24583E-01 0.00000E+00
 -1       405 8.38768E-01 5.79409E-01 0.00000E+00
 -1       406 8.87069E-01 5.37841E-01 0.00000E+00
 -1       407 9.30502E-01 5.91433E-01 0.00000E+00
 -1       408 9.74516E-01 6.40835E-01 0.00000E+00
 -1       409 1.01929E+00 6.89902E-01 0.00000E+00
 -1       410 9.72239E-01 7.34428E-01 0.00000E+00
 -1       411 9.76792E-01 5.47241E-01 0.00000E+00
 -1       412 1.02081E+00 5.96642E-01 0.00000E+00
 -1       413 1.06634E+00 5.52784E-01 0.00000E+00
 -1       414 1.06558E+00 6.45710E-01 0.00000E+00
 -1       415 1.06482E+00 7.38637E-01 0.00000E+00
 -1       416 1.01837E+00 7.83465E-01 0.00000E+00
 -1       417 9.71770E-01 8.28930E-01 0.00000E+00
 -1       418 9.25636E-01 7.79893E-01 0.00000E+00
 -1       419 1.06466E+00 8.31866E-01 0.00000E+00
 -1       420 1.06451E+00 9.25095E-01 0.00000E+00
 -1       421 1.01806E+00 8.77331E-01 0.00000E+00
 -1       422 9.71301E-01 9.23432E-01 0.00000E+00
 -1       423 9.25010E-01 8.75031E-01 0.00000E+00
 -1       424 1.06466E+00 1.01810E+00 0.00000E+00
 -1       425 1.01806E+00 9.70975E-01 0.00000E+00
 -1       426 1.01837E+00 1.06440E+00 0.00000E+00
 -1       427 9.25619E-01 1.06398E+00 0.00000E+00
 -1       428 9.71761E-01 1.01727E+00 0.00000E+00
 -1       429 9.25004E-01 9.69728E-01 0.00000E+00
 -1       430 1.06751E+00 4.60273E-01 0.00000E+00
 -1       431 1.02509E+00 4.11369E-01 0.00000E+00
 -1       432 1.02274E+00 5.03798E-01 0.00000E+00
 -1       433 9.34369E-01 4.98337E-01 0.00000E+00
 -1       434 9.80316E-01 4.54894E-01 0.00000E+00
 -1       435 9.39067E-01 4.06072E-01 0.00000E+00
 -1       436 8.32238E-01 1.06340E+00 0.00000E+00
 -1       437 8.78227E-01 1.01628E+00 0.00000E+00
 -1       438 7.38858E-01 1.06282E+00 0.00000E+00
 -1       439 7.84059E-01 1.01512E+00 0.00000E+00
 -1       440 7.35091E-01 9.66250E-01 0.00000E+00
 -1       441 7.81080E-01 9.19123E-01 0.00000E+00
 -1       442 8.30048E-01 9.67989E-01 0.00000E+00
 -1       443 8.76825E-01 9.21441E-01 0.00000E+00
 -1       444 5.56530E-01 7.06209E-01 0.00000E+00
 -1       445 6.20591E-01 7.62239E-01 0.00000E+00
 -1       446 5.73326E-01 8.14261E-01 0.00000E+00
 -1       447 6.73168E-01 7.12519E-01 0.00000E+00
 -1       448 7.31917E-01 7.66247E-01 0.00000E+00
 -1       449 6.79340E-01 8.15966E-01 0.00000E+00
 -1       450 7.32778E-01 8.67391E-01 0.00000E+00
 -1       451 6.85513E-01 9.19414E-01 0.00000E+00
 -1       452 6.32075E-01 8.67989E-01 0.00000E+00
 -1       453 5.90122E-01 9.22314E-01 0.00000E+00
 -1       454 8.28777E-01 7.73070E-01 0.00000E+00
 -1       455 7.80591E-01 8.19480E-01 0.00000E+00
 -1       456 8.77079E-01 8.24801E-01 0.00000E+00
 -1       457 8.28894E-01 8.71211E-01 0.00000E+00
 -1       458 4.54297E-01 9.75741E-01 0.00000E+00
 -1       459 4.11282E-01 1.02258E+00 0.00000E+00
 -1       460 5.45709E-01 9.70601E-01 0.00000E+00
 -1       461 5.03088E-01 1.01915E+00 0.00000E+00
 -1       462 5.52273E-01 1.06427E+00 0.00000E+00
 -1       463 4.60074E-01 1.06599E+00 0.00000E+00
 -1       464 5.95987E-01 1.01671E+00 0.00000E+00
 -1       465 6.45565E-01 1.06355E+00 0.00000E+00
 -1       466 6.40400E-01 9.68426E-01 0.00000E+00
 -1       467 6.89979E-01 1.01526E+00 0.00000E+00
 -1       468 8.46815E-01 4.85906E-01 0.00000E+00
 -1       469 8.94114E-01 4.46403E-01 0.00000E+00
 -1       470 8.08908E-01 4.34799E-01 0.00000E+00
 -1       471 8.56208E-01 3.95295E-01 0.00000E+00
 -1       472 5.31479E-01 3.80243E-01 0.00000E+00
 -1       473 5.44547E-01 2.99002E-01 0.00000E+00
 -1       474 5.94648E-01 3.29085E-01 0.00000E+00
 -1       475 4.85120E-01 2.54309E-01 0.00000E+00
 -1       476 5.66941E-01 2.32372E-01 0.00000E+00
 -1       477 6.48762E-01 2.10436E-01 0.00000E+00
 -1       478 6.17042E-01 2.62455E-01 0.00000E+00
 -1       479 6.57816E-01 2.77926E-01 0.00000E+00
 -1       480 6.43791E-01 5.37778E-01 0.00000E+00
 -1       481 5.80289E-01 5.84053E-01 0.00000E+00
 -1       482 6.87998E-01 6.05894E-01 0.00000E+00
 -1       483 6.24496E-01 6.52169E-01 0.00000E+00
 -1       484 1.79999E-01 7.20408E-01 0.00000E+00
 -1       485 1.85225E-01 6.48152E-01 0.00000E+00
 -1       486 2.37120E-01 6.37793E-01 0.00000E+00
 -1       487 2.31894E-01 7.10049E-01 0.00000E+00
 -1       488 1.40640E-01 6.58599E-01 0.00000E+00
 -1       489 1.83140E-01 5.75809E-01 0.00000E+00
 -1       490 2.35035E-01 5.65450E-01 0.00000E+00
 -1       491 2.96325E-01 6.27521E-01 0.00000E+00
 -1       492 1.03213E+00 1.36383E-01 0.00000E+00
 -1       493 1.07205E+00 9.17570E-02 0.00000E+00
 -1       494 9.53153E-01 1.33876E-01 0.00000E+00
 -1       495 9.93938E-01 9.00860E-02 0.00000E+00
 -1       496 9.56607E-01 4.46250E-02 0.00000E+00
 -1       497 1.03386E+00 4.54610E-02 0.00000E+00
 -1       498 8.39907E-01 8.66900E-02 0.00000E+00
 -1       499 8.76375E-01 1.31316E-01 0.00000E+00
 -1       500 8.80088E-01 4.37720E-02 0.00000E+00
 -1       501 9.16556E-01 8.83970E-02 0.00000E+00
 -1       502 1.20239E-01 6.99419E-01 0.00000E+00
 -1       503 7.03200E-02 6.74786E-01 0.00000E+00
 -1       504 8.99990E-02 7.43884E-01 0.00000E+00
 -1       505 4.00800E-02 7.19251E-01 0.00000E+00
 -1       506 4.77877E-01 3.40937E-01 0.00000E+00
 -1       507 4.31595E-01 3.21191E-01 0.00000E+00
 -1       508 4.63315E-01 4.08004E-01 0.00000E+00
 -1       509 4.13038E-01 3.85590E-01 0.00000E+00
 -1       510 7.21257E-01 2.87937E-01 0.00000E+00
 -1       511 7.55073E-01 2.52937E-01 0.00000E+00
 -1       512 6.87217E-01 2.47100E-01 0.00000E+00
 -1       513 7.21034E-01 2.12100E-01 0.00000E+00
 -1       514 3.04299E-01 6.90067E-01 0.00000E+00
 -1       515 3.10046E-01 7.44697E-01 0.00000E+00
 -1       516 3.78932E-01 6.78003E-01 0.00000E+00
 -1       517 3.84679E-01 7.32632E-01 0.00000E+00
 -1       518 1.85185E+00 1.85185E-01 0.00000E+00
 -1       519 1.29630E+00 5.55555E-01 0.00000E+00
 -1       520 1.66667E+00 9.25926E-01 0.00000E+00
 -1       521 1.48148E+00 1.85185E-01 0.00000E+00
 -1       522 2.03704E+00 5.55555E-01 0.00000E+00
 -1       523 2.03704E+00 9.25926E-01 0.00000E+00
 -1       524 1.29630E+00 9.25926E-01 0.00000E+00
 -1       525 2.03704E+00 1.85185E-01 0.00000E+00
 -1       526 1.29630E+00 1.85185E-01 0.00000E+00
 -1       527 2.03704E+00 7.40741E-01 0.00000E+00
 -1       528 1.29630E+00 7.40741E-01 0.00000E+00
 -1       529 2.03704E+00 3.70370E-01 0.00000E+00
 -1       530 1.66667E+00 1.85185E-01 0.00000E+00
 -1       531 1.48148E+00 9.25926E-01 0.00000E+00
 -1       532 1.48148E+00 3.70370E-01 0.00000E+00
 -1       533 1.29630E+00 3.70370E-01 0.00000E+00
 -1       534 1.85185E+00 9.25926E-01 0.00000E+00
 -1       535 1.66667E+00 7.40741E-01 0.00000E+00
 -1       536 1.85185E+00 3.70370E-01 0.00000E+00
 -1       537 1.48148E+00 5.55555E-01 0.00000E+00
 -1       538 1.48148E+00 7.40741E-01 0.00000E+00
 -1       539 1.66667E+00 3.70370E-01 0.00000E+00
 -1       540 1.85185E+00 7.40741E-01 0.00000E+00
 -1       541 1.66667E+00 5.55555E-01 0.00000E+00
 -1       542 1.85185E+00 5.55555E-01 0.00000E+00
 -1       543 1.75926E+00 5.55555E-01 0.00000E+00
 -1       544 1.85185E+00 6.48148E-01 0.00000E+00
 -1       545 1.75926E+00 7.40741E-01 0.00000E+00
 -1       546 1.66667E+00 6.48148E-01 0.00000E+00
 -1       547 1.75926E+00 6.48148E-01 0.00000E+00
 -1       548 1.57407E+00 7.40741E-01 0.00000E+00
 -1       549 1.48148E+00 6.48148E-01 0.00000E+00
 -1       550 1.57407E+00 5.55555E-01 0.00000E+00
 -1       551 1.57407E+00 6.48148E-01 0.00000E+00
 -1       552 1.85185E+00 8.33333E-01 0.00000E+00
 -1       553 1.94444E+00 7.40741E-01 0.00000E+00
 -1       554 2.03704E+00 8.33333E-01 0.00000E+00
 -1       555 1.94444E+00 9.25926E-01 0.00000E+00
 -1       556 1.94444E+00 8.33333E-01 0.00000E+00
 -1       557 1.38889E+00 7.40741E-01 0.00000E+00
 -1       558 1.29630E+00 6.48148E-01 0.00000E+00
 -1       559 1.38889E+00 5.55555E-01 0.00000E+00
 -1       560 1.38889E+00 6.48148E-01 0.00000E+00
 -1       561 1.94444E+00 1.85185E-01 0.00000E+00
 -1       562 1.85185E+00 9.25930E-02 0.00000E+00
 -1       563 2.03704E+00 9.25930E-02 0.00000E+00
 -1       564 1.94444E+00 9.25930E-02 0.00000E+00
 -1       565 1.75926E+00 1.85185E-01 0.00000E+00
 -1       566 1.66667E+00 9.25930E-02 0.00000E+00
 -1       567 1.75926E+00 9.25930E-02 0.00000E+00
 -1       568 1.29630E+00 1.01852E+00 0.00000E+00
 -1       569 1.38889E+00 9.25926E-01 0.00000E+00
 -1       570 1.48148E+00 1.01852E+00 0.00000E+00
 -1       571 1.38889E+00 1.01852E+00 0.00000E+00
 -1       572 1.85185E+00 2.77778E-01 0.00000E+00
 -1       573 1.75926E+00 3.70370E-01 0.00000E+00
 -1       574 1.66667E+00 2.77778E-01 0.00000E+00
 -1       575 1.75926E+00 2.77778E-01 0.00000E+00
 -1       576 1.66667E+00 4.62963E-01 0.00000E+00
 -1       577 1.85185E+00 4.62963E-01 0.00000E+00
 -1       578 1.75926E+00 4.62963E-01 0.00000E+00
 -1       579 1.20370E+00 5.55555E-01 0.00000E+00
 -1       580 1.20370E+00 7.40741E-01 0.00000E+00
 -1       581 1.20370E+00 6.48148E-01 0.00000E+00
 -1       582 2.12963E+00 3.70370E-01 0.00000E+00
 -1       583 2.12963E+00 5.55555E-01 0.00000E+00
 -1       584 2.03704E+00 4.62963E-01 0.00000E+00