
 stresses (elem, integ.pnt.,sxx,syy,szz,sxy,sxz,syz) for set EALL and time  0.1000000E+01

         1   1  1.571312E+03 -1.824939E+02  1.132985E+01  8.715908E+01 -5.137152E+01  2.505104E+01
         1   2  1.545698E+03 -1.580013E+02  7.287492E+00  1.083410E+02 -4.178417E+01  1.960718E+01
         1   3  1.528590E+03 -1.298374E+02  7.898879E+00  1.296112E+02 -3.317322E+01  1.435480E+01
         1   4  1.581802E+03 -1.538021E+02  1.062486E+01  1.186751E+02 -5.123647E+01  1.539582E+01
         1   5  1.551516E+03 -1.341979E+02  6.153869E+00  1.358651E+02 -4.167460E+01  1.095118E+01
         1   6  1.532554E+03 -1.099190E+02  7.190526E+00  1.532955E+02 -3.328927E+01  6.716346E+00
         1   7  1.597142E+03 -1.205745E+02  1.397568E+01  1.519990E+02 -5.136183E+01  5.341036E+00
         1   8  1.559715E+03 -1.076443E+02  7.478522E+00  1.642580E+02 -4.168625E+01  2.059047E+00
         1   9  1.537149E+03 -8.871928E+01  7.654164E+00  1.769863E+02 -3.343502E+01 -9.989355E-01
         1  10  1.571312E+03 -1.824939E+02  1.132985E+01  8.715908E+01 -5.604491E-13 -8.757018E-14
         1  11  1.545698E+03 -1.580013E+02  7.287492E+00  1.083410E+02 -4.290939E-13  4.378509E-15
         1  12  1.528590E+03 -1.298374E+02  7.898879E+00  1.296112E+02 -3.874980E-13  5.254211E-14
         1  13  1.581802E+03 -1.538021E+02  1.062486E+01  1.186751E+02  0.000000E+00 -5.604491E-13
         1  14  1.551516E+03 -1.341979E+02  6.153869E+00  1.358651E+02  3.677947E-13 -7.005614E-14
         1  15  1.532554E+03 -1.099190E+02  7.190526E+00  1.532955E+02  4.334724E-13  6.348838E-13
         1  16  1.597142E+03 -1.205745E+02  1.397568E+01  1.519990E+02  3.152526E-13 -1.261011E-12
         1  17  1.559715E+03 -1.076443E+02  7.478522E+00  1.642580E+02  8.494307E-13 -1.576263E-13
         1  18  1.537149E+03 -8.871928E+01  7.654164E+00  1.769863E+02  1.171251E-12  1.120898E-12
         1  19  1.571312E+03 -1.824939E+02  1.132985E+01  8.715908E+01  5.137152E+01 -2.505104E+01
         1  20  1.545698E+03 -1.580013E+02  7.287492E+00  1.083410E+02  4.178417E+01 -1.960718E+01
         1  21  1.528590E+03 -1.298374E+02  7.898879E+00  1.296112E+02  3.317322E+01 -1.435480E+01
         1  22  1.581802E+03 -1.538021E+02  1.062486E+01  1.186751E+02  5.123647E+01 -1.539582E+01
         1  23  1.551516E+03 -1.341979E+02  6.153869E+00  1.358651E+02  4.167460E+01 -1.095118E+01
         1  24  1.532554E+03 -1.099190E+02  7.190526E+00  1.532955E+02  3.328927E+01 -6.716346E+00
         1  25  1.597142E+03 -1.205745E+02  1.397568E+01  1.519990E+02  5.136183E+01 -5.341036E+00
         1  26  1.559715E+03 -1.076443E+02  7.478522E+00  1.642580E+02  4.168625E+01 -2.059047E+00
         1  27  1.537149E+03 -8.871928E+01  7.654164E+00  1.769863E+02  3.343502E+01  9.989355E-01
         2   1  1.516416E+03 -1.154720E+02  7.363904E+00  1.351804E+02 -2.819887E+01  1.270416E+01
         2   2  1.494589E+03 -9.252325E+01  5.761221E+00  1.350914E+02 -2.023391E+01  1.060183E+01
         2   3  1.480572E+03 -6.636855E+01  7.615927E+00  1.349092E+02 -1.305976E+01  8.654220E+00
         2   4  1.516999E+03 -9.882397E+01  5.788848E+00  1.559248E+02 -2.839855E+01  5.506562E+00
         2   5  1.490132E+03 -8.049456E+01  3.117175E+00  1.537476E+02 -2.041006E+01  4.037032E+00
         2   6  1.472601E+03 -5.843936E+01  4.376610E+00  1.516385E+02 -1.333330E+01  2.729827E+00
         2   7  1.521003E+03 -7.835251E+01  6.837725E+00  1.787183E+02 -2.877372E+01 -2.244357E+00
         2   8  1.487698E+03 -6.584009E+01  2.132909E+00  1.739004E+02 -2.067813E+01 -2.973501E+00
         2   9  1.465624E+03 -4.891645E+01  1.993105E+00  1.693683E+02 -1.364226E+01 -3.536184E+00
         2  10  1.516416E+03 -1.154720E+02  7.363904E+00  1.351804E+02 -5.779632E-13 -1.576263E-13
         2  11  1.494589E+03 -9.252325E+01  5.761221E+00  1.350914E+02 -3.940658E-13  9.304331E-14
         2  12  1.480572E+03 -6.636855E+01  7.615927E+00  1.349092E+02 -5.932879E-13  1.488693E-13
         2  13  1.516999E+03 -9.882397E+01  5.788848E+00  1.559248E+02  1.751404E-14 -3.502807E-14
         2  14  1.490132E+03 -8.049456E+01  3.117175E+00  1.537476E+02 -5.254211E-14 -1.225982E-13
         2  15  1.472601E+03 -5.843936E+01  4.376610E+00  1.516385E+02 -4.378509E-14 -2.189254E-13
         2  16  1.521003E+03 -7.835251E+01  6.837725E+00  1.787183E+02  8.231596E-13 -1.576263E-13
         2  17  1.487698E+03 -6.584009E+01  2.132909E+00  1.739004E+02  7.355895E-13 -4.378509E-14
         2  18  1.465624E+03 -4.891645E+01  1.993105E+00  1.693683E+02 -3.064956E-14 -2.714675E-13
         2  19  1.516416E+03 -1.154720E+02  7.363904E+00  1.351804E+02  2.819887E+01 -1.270416E+01
         2  20  1.494589E+03 -9.252325E+01  5.761221E+00  1.350914E+02  2.023391E+01 -1.060183E+01
         2  21  1.480572E+03 -6.636855E+01  7.615927E+00  1.349092E+02  1.305976E+01 -8.654220E+00
         2  22  1.516999E+03 -9.882397E+01  5.788848E+00  1.559248E+02  2.839855E+01 -5.506562E+00
         2  23  1.490132E+03 -8.049456E+01  3.117175E+00  1.537476E+02  2.041006E+01 -4.037032E+00
         2  24  1.472601E+03 -5.843936E+01  4.376610E+00  1.516385E+02  1.333330E+01 -2.729827E+00
         2  25  1.521003E+03 -7.835251E+01  6.837725E+00  1.787183E+02  2.877372E+01  2.244357E+00
         2  26  1.487698E+03 -6.584009E+01  2.132909E+00  1.739004E+02  2.067813E+01  2.973501E+00
         2  27  1.465624E+03 -4.891645E+01  1.993105E+00  1.693683E+02  1.364226E+01  3.536184E+00
         3   1  1.514886E+03 -6.769937E+01  4.786417E+00  1.881032E+02 -2.813000E+01 -6.960601E+00
         3   2  1.484203E+03 -5.613904E+01  1.416043E+00  1.827786E+02 -2.063925E+01 -7.267550E+00
         3   3  1.457973E+03 -4.287635E+01 -2.780233E-01  1.776307E+02 -1.367556E+01 -7.499188E+00
         3   4  1.502583E+03 -4.790981E+01  1.826069E+00  1.980801E+02 -2.692919E+01 -1.483005E+01
         3   5  1.469861E+03 -4.000082E+01 -2.103735E+00  1.918188E+02 -1.995250E+01 -1.475335E+01
         3   6  1.442334E+03 -3.010856E+01 -4.055832E+00  1.859480E+02 -1.353742E+01 -1.461253E+01
         3   7  1.493249E+03 -2.513600E+01  1.451120E+00  2.097908E+02 -2.578066E+01 -2.286354E+01
         3   8  1.457130E+03 -2.228872E+01 -4.165911E+00  2.022184E+02 -1.929114E+01 -2.236167E+01
         3   9  1.427210E+03 -1.702966E+01 -7.380812E+00  1.953275E+02 -1.340825E+01 -2.181221E+01
         3  10  1.514886E+03 -6.769937E+01  4.786417E+00  1.881032E+02 -2.802246E-13  1.242402E-13
         3  11  1.484203E+03 -5.613904E+01  1.416043E+00  1.827786E+02 -1.313553E-13  8.757018E-14
         3  12  1.457973E+03 -4.287635E+01 -2.780233E-01  1.776307E+02 -2.233039E-13 -3.809303E-13
         3  13  1.502583E+03 -4.790981E+01  1.826069E+00  1.980801E+02 -3.502807E-14  1.751404E-13
         3  14  1.469861E+03 -4.000082E+01 -2.103735E+00  1.918188E+02  1.401123E-13  1.225982E-13
         3  15  1.442334E+03 -3.010856E+01 -4.055832E+00  1.859480E+02  8.757018E-14  5.254211E-14
         3  16  1.493249E+03 -2.513600E+01  1.451120E+00  2.097908E+02  3.502807E-14  1.576263E-13
         3  17  1.457130E+03 -2.228872E+01 -4.165911E+00  2.022184E+02  4.290939E-13 -3.502807E-14
         3  18  1.427210E+03 -1.702966E+01 -7.380812E+00  1.953275E+02  2.014114E-13 -2.189254E-14
         3  19  1.514886E+03 -6.769937E+01  4.786417E+00  1.881032E+02  2.813000E+01  6.960601E+00
         3  20  1.484203E+03 -5.613904E+01  1.416043E+00  1.827786E+02  2.063925E+01  7.267550E+00
         3  21  1.457973E+03 -4.287635E+01 -2.780233E-01  1.776307E+02  1.367556E+01  7.499188E+00
         3  22  1.502583E+03 -4.790981E+01  1.826069E+00  1.980801E+02  2.692919E+01  1.483005E+01
         3  23  1.469861E+03 -4.000082E+01 -2.103735E+00  1.918188E+02  1.995250E+01  1.475335E+01
         3  24  1.442334E+03 -3.010856E+01 -4.055832E+00  1.859480E+02  1.353742E+01  1.461253E+01
         3  25  1.493249E+03 -2.513600E+01  1.451120E+00  2.097908E+02  2.578066E+01  2.286354E+01
         3  26  1.457130E+03 -2.228872E+01 -4.165911E+00  2.022184E+02  1.929114E+01  2.236167E+01
         3  27  1.427210E+03 -1.702966E+01 -7.380812E+00  1.953275E+02  1.340825E+01  2.181221E+01
         4   1  1.597053E+03 -1.022717E+02  1.353933E+01  1.684257E+02 -5.006547E+01 -6.893794E-01
         4   2  1.561241E+03 -9.057695E+01  8.206816E+00  1.778412E+02 -4.103396E+01 -3.332065E+00
         4   3  1.532417E+03 -7.601331E+01  6.132814E+00  1.875226E+02 -3.265153E+01 -5.881669E+00
         4   4  1.587319E+03 -7.044958E+01  1.149774E+01  1.869516E+02 -4.703642E+01 -1.068941E+01
         4   5  1.550564E+03 -6.248631E+01  6.192598E+00  1.934844E+02 -3.875258E+01 -1.263596E+01
         4   6  1.523257E+03 -5.066034E+01  5.081580E+00  2.004785E+02 -3.120433E+01 -1.449803E+01
         4   7  1.579789E+03 -3.740617E+01  1.232688E+01  2.059796E+02 -4.390772E+01 -2.053680E+01
         4   8  1.539704E+03 -3.506808E+01  5.347555E+00  2.086884E+02 -3.634383E+01 -2.169135E+01
         4   9  1.512369E+03 -2.747315E+01  3.869871E+00  2.121700E+02 -2.962781E+01 -2.277872E+01
         4  10  1.597053E+03 -1.022717E+02  1.353933E+01  1.684257E+02 -1.103384E-12 -1.339824E-12
         4  11  1.561241E+03 -9.057695E+01  8.206816E+00  1.778412E+02 -6.918044E-13  1.401123E-13
         4  12  1.532417E+03 -7.601331E+01  6.132814E+00  1.875226E+02 -8.319167E-14  1.053031E-12
         4  13  1.587319E+03 -7.044958E+01  1.149774E+01  1.869516E+02 -4.553649E-13 -4.203368E-13
         4  14  1.550564E+03 -6.248631E+01  6.192598E+00  1.934844E+02 -7.355895E-13  1.926544E-13
         4  15  1.523257E+03 -5.066034E+01  5.081580E+00  2.004785E+02 -1.138412E-13  4.028228E-13
         4  16  1.579789E+03 -3.740617E+01  1.232688E+01  2.059796E+02  0.000000E+00  2.977386E-13
         4  17  1.539704E+03 -3.506808E+01  5.347555E+00  2.086884E+02 -7.443465E-13  3.502807E-14
         4  18  1.512369E+03 -2.747315E+01  3.869871E+00  2.121700E+02 -1.904651E-13 -4.597434E-13
         4  19  1.597053E+03 -1.022717E+02  1.353933E+01  1.684257E+02  5.006547E+01  6.893794E-01
         4  20  1.561241E+03 -9.057695E+01  8.206816E+00  1.778412E+02  4.103396E+01  3.332065E+00
         4  21  1.532417E+03 -7.601331E+01  6.132814E+00  1.875226E+02  3.265153E+01  5.881669E+00
         4  22  1.587319E+03 -7.044958E+01  1.149774E+01  1.869516E+02  4.703642E+01  1.068941E+01
         4  23  1.550564E+03 -6.248631E+01  6.192598E+00  1.934844E+02  3.875258E+01  1.263596E+01
         4  24  1.523257E+03 -5.066034E+01  5.081580E+00  2.004785E+02  3.120433E+01  1.449803E+01
         4  25  1.579789E+03 -3.740617E+01  1.232688E+01  2.059796E+02  4.390772E+01  2.053680E+01
         4  26  1.539704E+03 -3.506808E+01  5.347555E+00  2.086884E+02  3.634383E+01  2.169135E+01
         4  27  1.512369E+03 -2.747315E+01  3.869871E+00  2.121700E+02  2.962781E+01  2.277872E+01
         5   1  5.161998E+02 -7.233916E+00 -1.555581E+01 -1.995210E+02  5.012538E+01  3.415813E+01
         5   2  5.581988E+02 -2.254820E+01 -1.546693E+01 -2.245045E+02  4.638376E+01  3.880659E+01
         5   3  6.078269E+02 -3.483469E+01 -1.332378E+01 -2.485382E+02  4.217046E+01  4.342772E+01
         5   4  4.893328E+02 -2.758932E+01 -1.910576E+01 -2.077477E+02  5.228057E+01  3.725814E+01
         5   5  5.344612E+02 -4.329347E+01 -1.871645E+01 -2.334055E+02  4.816100E+01  4.226239E+01
         5   6  5.872952E+02 -5.594375E+01 -1.632177E+01 -2.580924E+02  4.356524E+01  4.723498E+01
         5   7  4.616098E+02 -5.070228E+01 -2.327719E+01 -2.171657E+02  5.441736E+01  4.073295E+01
         5   8  5.099124E+02 -6.679184E+01 -2.263031E+01 -2.435124E+02  4.991360E+01  4.609685E+01
         5   9  5.659990E+02 -7.980018E+01 -2.002594E+01 -2.688662E+02  4.492913E+01  5.142457E+01
         5  10  5.161998E+02 -7.233916E+00 -1.555581E+01 -1.995210E+02  1.050842E-13  1.576263E-13
         5  11  5.581988E+02 -2.254820E+01 -1.546693E+01 -2.245045E+02  5.254211E-14  6.868786E-14
         5  12  6.078269E+02 -3.483469E+01 -1.332378E+01 -2.485382E+02 -2.408180E-13  1.234192E-13
         5  13  4.893328E+02 -2.758932E+01 -1.910576E+01 -2.077477E+02  1.510586E-13  2.090738E-13
         5  14  5.344612E+02 -4.329347E+01 -1.871645E+01 -2.334055E+02 -1.313553E-13  1.373757E-13
         5  15  5.872952E+02 -5.594375E+01 -1.632177E+01 -2.580924E+02 -2.408180E-14  2.447860E-13
         5  16  4.616098E+02 -5.070228E+01 -2.327719E+01 -2.171657E+02 -3.152526E-13 -4.323777E-14
         5  17  5.099124E+02 -6.679184E+01 -2.263031E+01 -2.435124E+02  1.926544E-13  8.100241E-14
         5  18  5.659990E+02 -7.980018E+01 -2.002594E+01 -2.688662E+02  4.772575E-13  2.803614E-13
         5  19  5.161998E+02 -7.233916E+00 -1.555581E+01 -1.995210E+02 -5.012538E+01 -3.415813E+01
         5  20  5.581988E+02 -2.254820E+01 -1.546693E+01 -2.245045E+02 -4.638376E+01 -3.880659E+01
         5  21  6.078269E+02 -3.483469E+01 -1.332378E+01 -2.485382E+02 -4.217046E+01 -4.342772E+01
         5  22  4.893328E+02 -2.758932E+01 -1.910576E+01 -2.077477E+02 -5.228057E+01 -3.725814E+01
         5  23  5.344612E+02 -4.329347E+01 -1.871645E+01 -2.334055E+02 -4.816100E+01 -4.226239E+01
         5  24  5.872952E+02 -5.594375E+01 -1.632177E+01 -2.580924E+02 -4.356524E+01 -4.723498E+01
         5  25  4.616098E+02 -5.070228E+01 -2.327719E+01 -2.171657E+02 -5.441736E+01 -4.073295E+01
         5  26  5.099124E+02 -6.679184E+01 -2.263031E+01 -2.435124E+02 -4.991360E+01 -4.609685E+01
         5  27  5.659990E+02 -7.980018E+01 -2.002594E+01 -2.688662E+02 -4.492913E+01 -5.142457E+01
         6   1  6.378001E+02 -4.401997E+01 -1.286775E+01 -2.592810E+02  3.957315E+01  4.558257E+01
         6   2  6.908823E+02 -5.885995E+01 -1.192717E+01 -2.713638E+02  3.504013E+01  4.838703E+01
         6   3  7.476658E+02 -7.221209E+01 -1.014999E+01 -2.825456E+02  3.032887E+01  5.118098E+01
         6   4  6.192999E+02 -6.531061E+01 -1.569469E+01 -2.689902E+02  4.073620E+01  4.951802E+01
         6   5  6.760852E+02 -8.046463E+01 -1.442696E+01 -2.809458E+02  3.579082E+01  5.245254E+01
         6   6  7.365628E+02 -9.412640E+01 -1.235932E+01 -2.919902E+02  3.067045E+01  5.537528E+01
         6   7  6.002028E+02 -8.912732E+01 -1.914756E+01 -2.801202E+02  4.186119E+01  5.387793E+01
         6   8  6.607284E+02 -1.046034E+02 -1.761157E+01 -2.919363E+02  3.649750E+01  5.693933E+01
         6   9  7.249361E+02 -1.185829E+02 -1.531274E+01 -3.028311E+02  3.096226E+01  5.998773E+01
         6  10  6.378001E+02 -4.401997E+01 -1.286775E+01 -2.592810E+02 -3.152526E-13 -3.677947E-13
         6  11  6.908823E+02 -5.885995E+01 -1.192717E+01 -2.713638E+02 -5.079070E-13 -2.900762E-14
         6  12  7.476658E+02 -7.221209E+01 -1.014999E+01 -2.825456E+02 -5.035285E-13  1.774664E-13
         6  13  6.192999E+02 -6.531061E+01 -1.569469E+01 -2.689902E+02 -2.189254E-15 -1.423015E-13
         6  14  6.760852E+02 -8.046463E+01 -1.442696E+01 -2.809458E+02 -1.751404E-14 -2.189254E-15
         6  15  7.365628E+02 -9.412640E+01 -1.235932E+01 -2.919902E+02 -1.094627E-13  2.465648E-13
         6  16  6.002028E+02 -8.912732E+01 -1.914756E+01 -2.801202E+02  2.451965E-13 -2.112630E-13
         6  17  6.607284E+02 -1.046034E+02 -1.761157E+01 -2.919363E+02  2.802246E-13 -7.115077E-15
         6  18  7.249361E+02 -1.185829E+02 -1.531274E+01 -3.028311E+02  2.627105E-13  1.661097E-13
         6  19  6.378001E+02 -4.401997E+01 -1.286775E+01 -2.592810E+02 -3.957315E+01 -4.558257E+01
         6  20  6.908823E+02 -5.885995E+01 -1.192717E+01 -2.713638E+02 -3.504013E+01 -4.838703E+01
         6  21  7.476658E+02 -7.221209E+01 -1.014999E+01 -2.825456E+02 -3.032887E+01 -5.118098E+01
         6  22  6.192999E+02 -6.531061E+01 -1.569469E+01 -2.689902E+02 -4.073620E+01 -4.951802E+01
         6  23  6.760852E+02 -8.046463E+01 -1.442696E+01 -2.809458E+02 -3.579082E+01 -5.245254E+01
         6  24  7.365628E+02 -9.412640E+01 -1.235932E+01 -2.919902E+02 -3.067045E+01 -5.537528E+01
         6  25  6.002028E+02 -8.912732E+01 -1.914756E+01 -2.801202E+02 -4.186119E+01 -5.387793E+01
         6  26  6.607284E+02 -1.046034E+02 -1.761157E+01 -2.919363E+02 -3.649750E+01 -5.693933E+01
         6  27  7.249361E+02 -1.185829E+02 -1.531274E+01 -3.028311E+02 -3.096226E+01 -5.998773E+01
         7   1  5.888713E+02 -1.041343E+02 -2.142533E+01 -2.863437E+02  4.234528E+01  5.659660E+01
         7   2  6.513149E+02 -1.197418E+02 -1.982412E+01 -2.980483E+02  3.673412E+01  5.973994E+01
         7   3  7.186279E+02 -1.333841E+02 -1.698620E+01 -3.089934E+02  3.091718E+01  6.286664E+01
         7   4  5.685190E+02 -1.319370E+02 -2.607367E+01 -2.949810E+02  4.260434E+01  6.162675E+01
         7   5  6.354280E+02 -1.470505E+02 -2.386021E+01 -3.067544E+02  3.645858E+01  6.491591E+01
         7   6  7.072152E+02 -1.601946E+02 -2.044920E+01 -3.177607E+02  3.011183E+01  6.818701E+01
         7   7  5.473180E+02 -1.628629E+02 -3.176811E+01 -3.052605E+02  4.281321E+01  6.721841E+01
         7   8  6.187443E+02 -1.774696E+02 -2.901348E+01 -3.170941E+02  3.612493E+01  7.064818E+01
         7   9  6.950565E+02 -1.901029E+02 -2.510095E+01 -3.281532E+02  2.924071E+01  7.405857E+01
         7  10  5.888713E+02 -1.041343E+02 -2.142533E+01 -2.863437E+02  7.005614E-14 -1.390177E-13
         7  11  6.513149E+02 -1.197418E+02 -1.982412E+01 -2.980483E+02  7.005614E-14 -3.721732E-14
         7  12  7.186279E+02 -1.333841E+02 -1.698620E+01 -3.089934E+02  3.502807E-14  3.489124E-14
         7  13  5.685190E+02 -1.319370E+02 -2.607367E+01 -2.949810E+02 -2.189254E-15 -3.283882E-14
         7  14  6.354280E+02 -1.470505E+02 -2.386021E+01 -3.067544E+02 -2.517643E-13 -7.662390E-14
         7  15  7.072152E+02 -1.601946E+02 -2.044920E+01 -3.177607E+02  4.378509E-14 -1.721301E-13
         7  16  5.473180E+02 -1.628629E+02 -3.176811E+01 -3.052605E+02 -3.502807E-13  2.769407E-13
         7  17  6.187443E+02 -1.774696E+02 -2.901348E+01 -3.170941E+02 -3.502807E-13 -6.731957E-14
         7  18  6.950565E+02 -1.901029E+02 -2.510095E+01 -3.281532E+02 -1.488693E-13 -4.377140E-13
         7  19  5.888713E+02 -1.041343E+02 -2.142533E+01 -2.863437E+02 -4.234528E+01 -5.659660E+01
         7  20  6.513149E+02 -1.197418E+02 -1.982412E+01 -2.980483E+02 -3.673412E+01 -5.973994E+01
         7  21  7.186279E+02 -1.333841E+02 -1.698620E+01 -3.089934E+02 -3.091718E+01 -6.286664E+01
         7  22  5.685190E+02 -1.319370E+02 -2.607367E+01 -2.949810E+02 -4.260434E+01 -6.162675E+01
         7  23  6.354280E+02 -1.470505E+02 -2.386021E+01 -3.067544E+02 -3.645858E+01 -6.491591E+01
         7  24  7.072152E+02 -1.601946E+02 -2.044920E+01 -3.177607E+02 -3.011183E+01 -6.818701E+01
         7  25  5.473180E+02 -1.628629E+02 -3.176811E+01 -3.052605E+02 -4.281321E+01 -6.721841E+01
         7  26  6.187443E+02 -1.774696E+02 -2.901348E+01 -3.170941E+02 -3.612493E+01 -7.064818E+01
         7  27  6.950565E+02 -1.901029E+02 -2.510095E+01 -3.281532E+02 -2.924071E+01 -7.405857E+01
         8   1  4.448533E+02 -6.553000E+01 -2.609202E+01 -2.225159E+02  5.556467E+01  4.289959E+01
         8   2  4.945846E+02 -8.191111E+01 -2.546457E+01 -2.492347E+02  5.086987E+01  4.850515E+01
         8   3  5.533817E+02 -9.469419E+01 -2.239269E+01 -2.750357E+02  4.558522E+01  5.406328E+01
         8   4  4.149834E+02 -9.367644E+01 -3.175731E+01 -2.298848E+02  5.713829E+01  4.692014E+01
         8   5  4.683084E+02 -1.098885E+02 -3.067535E+01 -2.572711E+02  5.193900E+01  5.297896E+01
         8   6  5.307964E+02 -1.224800E+02 -2.721443E+01 -2.837233E+02  4.614465E+01  5.898453E+01
         8   7  3.835936E+02 -1.260932E+02 -3.880471E+01 -2.385817E+02  5.868713E+01  5.144868E+01
         8   8  4.405733E+02 -1.420985E+02 -3.731859E+01 -2.666546E+02  5.297496E+01  5.796521E+01
         8   9  5.068154E+02 -1.544603E+02 -3.351817E+01 -2.937766E+02  4.666252E+01  6.442246E+01
         8  10  4.448533E+02 -6.553000E+01 -2.609202E+01 -2.225159E+02  2.101684E-13 -1.696672E-14
         8  11  4.945846E+02 -8.191111E+01 -2.546457E+01 -2.492347E+02  3.502807E-14  1.121993E-14
         8  12  5.533817E+02 -9.469419E+01 -2.239269E+01 -2.750357E+02  7.005614E-14  1.307395E-13
         8  13  4.149834E+02 -9.367644E+01 -3.175731E+01 -2.298848E+02 -7.662390E-15 -6.896151E-14
         8  14  4.683084E+02 -1.098885E+02 -3.067535E+01 -2.572711E+02  7.990779E-14  5.035285E-14
         8  15  5.307964E+02 -1.224800E+02 -2.721443E+01 -2.837233E+02  5.910987E-14  8.702286E-14
         8  16  3.835936E+02 -1.260932E+02 -3.880471E+01 -2.385817E+02 -2.101684E-13 -9.796913E-14
         8  17  4.405733E+02 -1.420985E+02 -3.731859E+01 -2.666546E+02 -1.050842E-13  1.176724E-14
         8  18  5.068154E+02 -1.544603E+02 -3.351817E+01 -2.937766E+02 -2.539535E-13  3.619111E-14
         8  19  4.448533E+02 -6.553000E+01 -2.609202E+01 -2.225159E+02 -5.556467E+01 -4.289959E+01
         8  20  4.945846E+02 -8.191111E+01 -2.546457E+01 -2.492347E+02 -5.086987E+01 -4.850515E+01
         8  21  5.533817E+02 -9.469419E+01 -2.239269E+01 -2.750357E+02 -4.558522E+01 -5.406328E+01
         8  22  4.149834E+02 -9.367644E+01 -3.175731E+01 -2.298848E+02 -5.713829E+01 -4.692014E+01
         8  23  4.683084E+02 -1.098885E+02 -3.067535E+01 -2.572711E+02 -5.193900E+01 -5.297896E+01
         8  24  5.307964E+02 -1.224800E+02 -2.721443E+01 -2.837233E+02 -4.614465E+01 -5.898453E+01
         8  25  3.835936E+02 -1.260932E+02 -3.880471E+01 -2.385817E+02 -5.868713E+01 -5.144868E+01
         8  26  4.405733E+02 -1.420985E+02 -3.731859E+01 -2.666546E+02 -5.297496E+01 -5.796521E+01
         8  27  5.068154E+02 -1.544603E+02 -3.351817E+01 -2.937766E+02 -4.666252E+01 -6.442246E+01
         9   1  1.252865E+03  8.934723E+01 -4.156448E+01  1.028911E+01 -4.701375E-01 -7.342634E+01
         9   2  1.329224E+03  1.211992E+02 -2.451536E+01  1.086182E+01 -6.579438E-01 -7.944342E+01
         9   3  1.403254E+03  1.516608E+02 -9.795418E+00  1.187011E+01 -1.278586E+00 -8.546295E+01
         9   4  1.266363E+03  9.167855E+01 -3.786320E+01  4.342823E+01 -2.553716E+00 -7.316857E+01
         9   5  1.344821E+03  1.231418E+02 -2.101489E+01  4.719544E+01 -4.240149E+00 -7.901524E+01
         9   6  1.420862E+03  1.531854E+02 -6.548920E+00  5.125058E+01 -6.294354E+00 -8.487133E+01
         9   7  1.276956E+03  8.659371E+01 -3.675567E+01  7.686129E+01 -4.507595E+00 -7.129933E+01
         9   8  1.358036E+03  1.184459E+02 -1.933709E+01  8.377333E+01 -7.633742E+00 -7.704655E+01
         9   9  1.436609E+03  1.488333E+02 -4.359694E+00  9.084017E+01 -1.107018E+01 -8.280728E+01
         9  10  1.252865E+03  8.934723E+01 -4.156448E+01  1.028911E+01 -8.428629E-13 -1.050842E-12
         9  11  1.329224E+03  1.211992E+02 -2.451536E+01  1.086182E+01 -5.593545E-13  1.751404E-14
         9  12  1.403254E+03  1.516608E+02 -9.795418E+00  1.187011E+01 -2.806350E-13  1.860866E-13
         9  13  1.266363E+03  9.167855E+01 -3.786320E+01  4.342823E+01 -3.371452E-13  2.802246E-13
         9  14  1.344821E+03  1.231418E+02 -2.101489E+01  4.719544E+01 -8.384844E-13 -3.152526E-13
         9  15  1.420862E+03  1.531854E+02 -6.548920E+00  5.125058E+01 -4.181476E-13 -7.618605E-13
         9  16  1.276956E+03  8.659371E+01 -3.675567E+01  7.686129E+01  2.802246E-13  1.278525E-12
         9  17  1.358036E+03  1.184459E+02 -1.933709E+01  8.377333E+01 -2.846031E-13 -1.050842E-13
         9  18  1.436609E+03  1.488333E+02 -4.359694E+00  9.084017E+01 -6.638914E-13 -1.212847E-12
         9  19  1.252865E+03  8.934723E+01 -4.156448E+01  1.028911E+01  4.701375E-01  7.342634E+01
         9  20  1.329224E+03  1.211992E+02 -2.451536E+01  1.086182E+01  6.579438E-01  7.944342E+01
         9  21  1.403254E+03  1.516608E+02 -9.795418E+00  1.187011E+01  1.278586E+00  8.546295E+01
         9  22  1.266363E+03  9.167855E+01 -3.786320E+01  4.342823E+01  2.553716E+00  7.316857E+01
         9  23  1.344821E+03  1.231418E+02 -2.101489E+01  4.719544E+01  4.240149E+00  7.901524E+01
         9  24  1.420862E+03  1.531854E+02 -6.548920E+00  5.125058E+01  6.294354E+00  8.487133E+01
         9  25  1.276956E+03  8.659371E+01 -3.675567E+01  7.686129E+01  4.507595E+00  7.129933E+01
         9  26  1.358036E+03  1.184459E+02 -1.933709E+01  8.377333E+01  7.633742E+00  7.704655E+01
         9  27  1.436609E+03  1.488333E+02 -4.359694E+00  9.084017E+01  1.107018E+01  8.280728E+01
        10   1  1.445464E+03  1.712932E+02 -1.440613E+00  1.278351E+01 -1.411278E+00 -8.800632E+01
        10   2  1.519449E+03  2.044522E+02  1.256838E+01  1.235119E+01 -1.565454E+00 -9.185088E+01
        10   3  1.602120E+03  2.410943E+02  2.945262E+01  1.287738E+01 -2.303583E+00 -9.569902E+01
        10   4  1.467172E+03  1.760917E+02  3.558687E+00  5.451478E+01 -7.586282E+00 -8.771689E+01
        10   5  1.545183E+03  2.080796E+02  1.763458E+01  5.459659E+01 -9.966015E+00 -9.109723E+01
        10   6  1.630747E+03  2.431264E+02  3.418955E+01  5.547052E+01 -1.282050E+01 -9.448985E+01
        10   7  1.483434E+03  1.687304E+02  4.832026E+00  9.417036E+01 -1.328817E+01 -8.488133E+01
        10   8  1.566331E+03  2.008148E+02  2.023426E+01  9.509453E+01 -1.782437E+01 -8.792371E+01
        10   9  1.655733E+03  2.355470E+02  3.774915E+01  9.664913E+01 -2.273760E+01 -9.098256E+01
        10  10  1.445464E+03  1.712932E+02 -1.440613E+00  1.278351E+01  2.802246E-13  1.576263E-13
        10  11  1.519449E+03  2.044522E+02  1.256838E+01  1.235119E+01 -7.016560E-13  1.926544E-13
        10  12  1.602120E+03  2.410943E+02  2.945262E+01  1.287738E+01 -1.225435E-12  2.758461E-13
        10  13  1.467172E+03  1.760917E+02  3.558687E+00  5.451478E+01  1.751404E-14  9.107298E-13
        10  14  1.545183E+03  2.080796E+02  1.763458E+01  5.459659E+01  1.488693E-13  3.152526E-13
        10  15  1.630747E+03  2.431264E+02  3.418955E+01  5.547052E+01  3.940658E-14  5.341781E-13
        10  16  1.483434E+03  1.687304E+02  4.832026E+00  9.417036E+01  1.094627E-15  4.028228E-13
        10  17  1.566331E+03  2.008148E+02  2.023426E+01  9.509453E+01  7.016560E-13  2.977386E-13
        10  18  1.655733E+03  2.355470E+02  3.774915E+01  9.664913E+01  6.132649E-13  2.539535E-13
        10  19  1.445464E+03  1.712932E+02 -1.440613E+00  1.278351E+01  1.411278E+00  8.800632E+01
        10  20  1.519449E+03  2.044522E+02  1.256838E+01  1.235119E+01  1.565454E+00  9.185088E+01
        10  21  1.602120E+03  2.410943E+02  2.945262E+01  1.287738E+01  2.303583E+00  9.569902E+01
        10  22  1.467172E+03  1.760917E+02  3.558687E+00  5.451478E+01  7.586282E+00  8.771689E+01
        10  23  1.545183E+03  2.080796E+02  1.763458E+01  5.459659E+01  9.966015E+00  9.109723E+01
        10  24  1.630747E+03  2.431264E+02  3.418955E+01  5.547052E+01  1.282050E+01  9.448985E+01
        10  25  1.483434E+03  1.687304E+02  4.832026E+00  9.417036E+01  1.328817E+01  8.488133E+01
        10  26  1.566331E+03  2.008148E+02  2.023426E+01  9.509453E+01  1.782437E+01  8.792371E+01
        10  27  1.655733E+03  2.355470E+02  3.774915E+01  9.664913E+01  2.273760E+01  9.098256E+01
        11   1  1.496415E+03  1.634561E+02  7.094033E+00  1.173902E+02 -1.725111E+01 -8.260108E+01
        11   2  1.576949E+03  1.919477E+02  2.085970E+01  1.172797E+02 -2.245534E+01 -8.506662E+01
        11   3  1.671731E+03  2.267177E+02  4.028258E+01  1.195917E+02 -2.920251E+01 -8.761482E+01
        11   4  1.516782E+03  1.483155E+02  1.001513E+01  1.486012E+02 -2.330033E+01 -7.739725E+01
        11   5  1.597104E+03  1.704472E+02  2.255169E+01  1.468285E+02 -3.066447E+01 -7.838571E+01
        11   6  1.690361E+03  1.984596E+02  4.061820E+01  1.472102E+02 -3.938273E+01 -7.946764E+01
        11   7  1.533488E+03  1.241070E+02  1.087000E+01  1.786232E+02 -2.893274E+01 -6.994928E+01
        11   8  1.614759E+03  1.414976E+02  2.372476E+01  1.756246E+02 -3.841447E+01 -6.965518E+01
        11   9  1.707749E+03  1.643858E+02  4.201578E+01  1.745213E+02 -4.907722E+01 -6.945916E+01
        11  10  1.496415E+03  1.634561E+02  7.094033E+00  1.173902E+02  5.560706E-13  3.327667E-13
        11  11  1.576949E+03  1.919477E+02  2.085970E+01  1.172797E+02  4.334724E-13  1.313553E-13
        11  12  1.671731E+03  2.267177E+02  4.028258E+01  1.195917E+02  5.215899E-13  2.364395E-13
        11  13  1.516782E+03  1.483155E+02  1.001513E+01  1.486012E+02  2.101684E-13  8.406737E-13
        11  14  1.597104E+03  1.704472E+02  2.255169E+01  1.468285E+02 -7.005614E-14  1.050842E-13
        11  15  1.690361E+03  1.984596E+02  4.061820E+01  1.472102E+02 -9.632719E-14  5.254211E-14
        11  16  1.533488E+03  1.241070E+02  1.087000E+01  1.786232E+02 -2.846031E-13  1.050842E-13
        11  17  1.614759E+03  1.414976E+02  2.372476E+01  1.756246E+02  1.751404E-14  0.000000E+00
        11  18  1.707749E+03  1.643858E+02  4.201578E+01  1.745213E+02 -8.100241E-14 -6.567763E-13
        11  19  1.496415E+03  1.634561E+02  7.094033E+00  1.173902E+02  1.725111E+01  8.260108E+01
        11  20  1.576949E+03  1.919477E+02  2.085970E+01  1.172797E+02  2.245534E+01  8.506662E+01
        11  21  1.671731E+03  2.267177E+02  4.028258E+01  1.195917E+02  2.920251E+01  8.761482E+01
        11  22  1.516782E+03  1.483155E+02  1.001513E+01  1.486012E+02  2.330033E+01  7.739725E+01
        11  23  1.597104E+03  1.704472E+02  2.255169E+01  1.468285E+02  3.066447E+01  7.838571E+01
        11  24  1.690361E+03  1.984596E+02  4.061820E+01  1.472102E+02  3.938273E+01  7.946764E+01
        11  25  1.533488E+03  1.241070E+02  1.087000E+01  1.786232E+02  2.893274E+01  6.994928E+01
        11  26  1.614759E+03  1.414976E+02  2.372476E+01  1.756246E+02  3.841447E+01  6.965518E+01
        11  27  1.707749E+03  1.643858E+02  4.201578E+01  1.745213E+02  4.907722E+01  6.945916E+01
        12   1  1.287067E+03  8.374087E+01 -3.465724E+01  9.614892E+01 -5.734601E+00 -6.974848E+01
        12   2  1.368655E+03  1.142237E+02 -1.752666E+01  1.041591E+02 -9.523837E+00 -7.518127E+01
        12   3  1.450236E+03  1.445473E+02 -1.642458E+00  1.137341E+02 -1.445957E+01 -8.067541E+01
        12   4  1.306840E+03  7.698411E+01 -3.044850E+01  1.228988E+02 -7.752355E+00 -6.622412E+01
        12   5  1.387765E+03  1.028356E+02 -1.463940E+01  1.327681E+02 -1.303111E+01 -7.075703E+01