    1C
    1UUSER                                                              
    1UDATE              03.april.2020                                   
    1UTIME              21:57:53                                        
    1UHOST                                                              
    1UPGM               CalculiX                                        
    1UVERSION           Version 2.16                             
    1UCOMPILETIME       Mo 25. Nov 18:56:47 CET 2019                    
    1UDIR                                                               
    1UDBN                                                               
    1UMAT    1STEEL                                                     
    1UMAT    2SI0                                                       
    1UMAT    3SI1                                                       
    1UMAT    4SI2                                                       
    2C                          1429                                     1
 -1         1 4.00000E+00-5.00000E-01 0.00000E+00
 -1         2 0.00000E+00 2.50000E-01 0.00000E+00
 -1         3-5.00000E-01 4.00000E+00 0.00000E+00
 -1         4 5.00000E-01 3.50000E+00 0.00000E+00
 -1         5 5.00000E-01 4.00000E+00 0.00000E+00
 -1         6 4.50000E+00 7.50000E+00 0.00000E+00
 -1         7 4.50000E+00 8.00000E+00 0.00000E+00
 -1         8-5.00000E-01-0.00000E+00 0.00000E+00
 -1        10-0.00000E+00-5.00000E-01 0.00000E+00
 -1        12 4.50000E+00 0.00000E+00 0.00000E+00
 -1        14 4.00000E+00 8.50000E+00 0.00000E+00
 -1        15 3.50000E+00 8.00000E+00 0.00000E+00
 -1        16 3.50000E+00 1.00000E+00 0.00000E+00
 -1        18 3.00000E+00 5.00000E-01 0.00000E+00
 -1        19 1.00000E+00 5.00000E-01 0.00000E+00
 -1        21 5.00000E-01 1.00000E+00 0.00000E+00
 -1        23 0.00000E+00 4.50000E+00 0.00000E+00
 -1        24 2.50000E-01 0.00000E+00 0.00000E+00
 -1        25 0.00000E+00-2.50000E-01 0.00000E+00
 -1        26-2.50000E-01 0.00000E+00 0.00000E+00
 -1        27 0.00000E+00 4.25000E+00 0.00000E+00
 -1        28 2.50000E-01 4.00000E+00 0.00000E+00
 -1        29 0.00000E+00 3.75000E+00 0.00000E+00
 -1        30-2.50000E-01 4.00000E+00 0.00000E+00
 -1        31 4.00000E+00 8.25000E+00 0.00000E+00
 -1        32 4.25000E+00 8.00000E+00 0.00000E+00
 -1        33 4.00000E+00 7.75000E+00 0.00000E+00
 -1        34 3.75000E+00 8.00000E+00 0.00000E+00
 -1        35 0.00000E+00 2.35000E-01 0.00000E+00
 -1        37 2.35000E-01 0.00000E+00 0.00000E+00
 -1        38 0.00000E+00-2.35000E-01 0.00000E+00
 -1        39-2.35000E-01 0.00000E+00 0.00000E+00
 -1        40 0.00000E+00 4.23500E+00 0.00000E+00
 -1        42 2.35000E-01 4.00000E+00 0.00000E+00
 -1        43 0.00000E+00 3.76500E+00 0.00000E+00
 -1        44-2.35000E-01 4.00000E+00 0.00000E+00
 -1        45 4.00000E+00 8.23500E+00 0.00000E+00
 -1        47 4.23500E+00 8.00000E+00 0.00000E+00
 -1        48 4.00000E+00 7.76500E+00 0.00000E+00
 -1        49 3.76500E+00 8.00000E+00 0.00000E+00
 -1        50 3.50000E+00 7.50000E+00 0.00000E+00
 -1        51 4.50000E+00 1.00000E+00 0.00000E+00
 -1        52 3.00000E+00-5.00000E-01 0.00000E+00
 -1        53 1.00000E+00-5.00000E-01 0.00000E+00
 -1        54-5.00000E-01 1.00000E+00 0.00000E+00
 -1        55-5.00000E-01 3.50000E+00 0.00000E+00
 -1        56-5.00000E-01 3.87500E+00 0.00000E+00
 -1        57-5.00000E-01 3.75000E+00 0.00000E+00
 -1        58-5.00000E-01 3.62500E+00 0.00000E+00
 -1        59-5.00000E-01 3.93750E+00 0.00000E+00
 -1        60-5.00000E-01 3.81250E+00 0.00000E+00
 -1        61-5.00000E-01 3.68750E+00 0.00000E+00
 -1        62-5.00000E-01 3.56250E+00 0.00000E+00
 -1        63 5.00000E-01 3.62500E+00 0.00000E+00
 -1        64 5.00000E-01 3.75000E+00 0.00000E+00
 -1        65 5.00000E-01 3.87500E+00 0.00000E+00
 -1        66 5.00000E-01 3.56250E+00 0.00000E+00
 -1        67 5.00000E-01 3.68750E+00 0.00000E+00
 -1        68 5.00000E-01 3.81250E+00 0.00000E+00
 -1        69 5.00000E-01 3.93750E+00 0.00000E+00
 -1        70 5.00000E-01 1.31250E+00 0.00000E+00
 -1        71 5.00000E-01 1.62500E+00 0.00000E+00
 -1        72 5.00000E-01 1.93750E+00 0.00000E+00
 -1        73 5.00000E-01 2.25000E+00 0.00000E+00
 -1        74 5.00000E-01 2.56250E+00 0.00000E+00
 -1        75 5.00000E-01 2.87500E+00 0.00000E+00
 -1        76 5.00000E-01 3.18750E+00 0.00000E+00
 -1        77 5.00000E-01 1.15625E+00 0.00000E+00
 -1        78 5.00000E-01 1.46875E+00 0.00000E+00
 -1        79 5.00000E-01 1.78125E+00 0.00000E+00
 -1        80 5.00000E-01 2.09375E+00 0.00000E+00
 -1        81 5.00000E-01 2.40625E+00 0.00000E+00
 -1        82 5.00000E-01 2.71875E+00 0.00000E+00
 -1        83 5.00000E-01 3.03125E+00 0.00000E+00
 -1        84 5.00000E-01 3.34375E+00 0.00000E+00
 -1        85 2.50000E+00 5.00000E-01 0.00000E+00
 -1        86 2.00000E+00 5.00000E-01 0.00000E+00
 -1        87 1.50000E+00 5.00000E-01 0.00000E+00
 -1        88 2.75000E+00 5.00000E-01 0.00000E+00
 -1        89 2.25000E+00 5.00000E-01 0.00000E+00
 -1        90 1.75000E+00 5.00000E-01 0.00000E+00
 -1        91 1.25000E+00 5.00000E-01 0.00000E+00
 -1        92 3.50000E+00 7.87500E+00 0.00000E+00
 -1        93 3.50000E+00 7.75000E+00 0.00000E+00
 -1        94 3.50000E+00 7.62500E+00 0.00000E+00
 -1        95 3.50000E+00 7.93750E+00 0.00000E+00
 -1        96 3.50000E+00 7.81250E+00 0.00000E+00
 -1        97 3.50000E+00 7.68750E+00 0.00000E+00
 -1        98 3.50000E+00 7.56250E+00 0.00000E+00
 -1        99 4.50000E+00 7.62500E+00 0.00000E+00
 -1       100 4.50000E+00 7.75000E+00 0.00000E+00
 -1       101 4.50000E+00 7.87500E+00 0.00000E+00
 -1       102 4.50000E+00 7.56250E+00 0.00000E+00
 -1       103 4.50000E+00 7.68750E+00 0.00000E+00
 -1       104 4.50000E+00 7.81250E+00 0.00000E+00
 -1       105 4.50000E+00 7.93750E+00 0.00000E+00
 -1       106 4.50000E+00 2.50000E-01 0.00000E+00
 -1       107 4.50000E+00 5.00000E-01 0.00000E+00
 -1       108 4.50000E+00 7.50000E-01 0.00000E+00
 -1       109 4.50000E+00 1.25000E-01 0.00000E+00
 -1       110 4.50000E+00 3.75000E-01 0.00000E+00
 -1       111 4.50000E+00 6.25000E-01 0.00000E+00
 -1       112 4.50000E+00 8.75000E-01 0.00000E+00
 -1       113 2.50000E-01-5.00000E-01 0.00000E+00
 -1       114 5.00000E-01-5.00000E-01 0.00000E+00
 -1       115 7.50000E-01-5.00000E-01 0.00000E+00
 -1       116 1.25000E-01-5.00000E-01 0.00000E+00
 -1       117 3.75000E-01-5.00000E-01 0.00000E+00
 -1       118 6.25000E-01-5.00000E-01 0.00000E+00
 -1       119 8.75000E-01-5.00000E-01 0.00000E+00
 -1       120-4.61940E-01-1.91342E-01 0.00000E+00
 -1       121-3.53553E-01-3.53553E-01 0.00000E+00
 -1       122-1.91342E-01-4.61940E-01 0.00000E+00
 -1       123-4.90393E-01-9.75450E-02 0.00000E+00
 -1       124-4.15735E-01-2.77785E-01 0.00000E+00
 -1       125-2.77785E-01-4.15735E-01 0.00000E+00
 -1       126-9.75450E-02-4.90393E-01 0.00000E+00
 -1       127 4.19134E+00-4.61940E-01 0.00000E+00
 -1       128 4.35355E+00-3.53553E-01 0.00000E+00
 -1       129 4.46194E+00-1.91342E-01 0.00000E+00
 -1       130 4.09755E+00-4.90393E-01 0.00000E+00
 -1       131 4.27778E+00-4.15735E-01 0.00000E+00
 -1       132 4.41573E+00-2.77785E-01 0.00000E+00
 -1       133 4.49039E+00-9.75450E-02 0.00000E+00
 -1       134 4.46194E+00 8.19134E+00 0.00000E+00
 -1       135 4.35355E+00 8.35355E+00 0.00000E+00
 -1       136 4.19134E+00 8.46194E+00 0.00000E+00
 -1       137 4.49039E+00 8.09754E+00 0.00000E+00
 -1       138 4.41573E+00 8.27779E+00 0.00000E+00
 -1       139 4.27778E+00 8.41574E+00 0.00000E+00
 -1       140 4.09755E+00 8.49039E+00 0.00000E+00
 -1       141 3.80866E+00 8.46194E+00 0.00000E+00
 -1       142 3.64645E+00 8.35355E+00 0.00000E+00
 -1       143 3.53806E+00 8.19134E+00 0.00000E+00
 -1       144 3.90246E+00 8.49039E+00 0.00000E+00
 -1       145 3.72221E+00 8.41574E+00 0.00000E+00
 -1       146 3.58426E+00 8.27779E+00 0.00000E+00
 -1       147 3.50961E+00 8.09754E+00 0.00000E+00
 -1       148 3.46194E+00 8.08658E-01 0.00000E+00
 -1       149 3.35355E+00 6.46447E-01 0.00000E+00
 -1       150 3.19134E+00 5.38060E-01 0.00000E+00
 -1       151 3.49039E+00 9.02455E-01 0.00000E+00
 -1       152 3.41574E+00 7.22215E-01 0.00000E+00
 -1       153 3.27779E+00 5.84265E-01 0.00000E+00
 -1       154 3.09754E+00 5.09607E-01 0.00000E+00
 -1       155 8.08658E-01 5.38060E-01 0.00000E+00
 -1       156 6.46447E-01 6.46447E-01 0.00000E+00
 -1       157 5.38060E-01 8.08658E-01 0.00000E+00
 -1       158 9.02455E-01 5.09607E-01 0.00000E+00
 -1       159 7.22215E-01 5.84265E-01 0.00000E+00
 -1       160 5.84265E-01 7.22215E-01 0.00000E+00
 -1       161 5.09607E-01 9.02455E-01 0.00000E+00
 -1       162 4.61940E-01 4.19134E+00 0.00000E+00
 -1       163 3.53553E-01 4.35355E+00 0.00000E+00
 -1       164 1.91342E-01 4.46194E+00 0.00000E+00
 -1       165 4.90393E-01 4.09755E+00 0.00000E+00
 -1       166 4.15735E-01 4.27778E+00 0.00000E+00
 -1       167 2.77785E-01 4.41573E+00 0.00000E+00
 -1       168 9.75450E-02 4.49039E+00 0.00000E+00
 -1       169-1.91342E-01 4.46194E+00 0.00000E+00
 -1       170-3.53553E-01 4.35355E+00 0.00000E+00
 -1       171-4.61940E-01 4.19134E+00 0.00000E+00
 -1       172-9.75450E-02 4.49039E+00 0.00000E+00
 -1       173-2.77785E-01 4.41573E+00 0.00000E+00
 -1       174-4.15735E-01 4.27778E+00 0.00000E+00
 -1       175-4.90393E-01 4.09755E+00 0.00000E+00
 -1       176 9.56710E-02 2.30970E-01 0.00000E+00
 -1       177 1.76777E-01 1.76777E-01 0.00000E+00
 -1       178 2.30970E-01 9.56710E-02 0.00000E+00
 -1       179 4.87730E-02 2.45196E-01 0.00000E+00
 -1       180 1.38893E-01 2.07867E-01 0.00000E+00
 -1       181 2.07867E-01 1.38893E-01 0.00000E+00
 -1       182 2.45196E-01 4.87730E-02 0.00000E+00
 -1       183 2.30970E-01-9.56710E-02 0.00000E+00
 -1       184 1.76777E-01-1.76777E-01 0.00000E+00
 -1       185 9.56710E-02-2.30970E-01 0.00000E+00
 -1       186 2.45196E-01-4.87730E-02 0.00000E+00
 -1       187 2.07867E-01-1.38893E-01 0.00000E+00
 -1       188 1.38893E-01-2.07867E-01 0.00000E+00
 -1       189 4.87730E-02-2.45196E-01 0.00000E+00
 -1       190-9.56710E-02-2.30970E-01 0.00000E+00
 -1       191-1.76777E-01-1.76777E-01 0.00000E+00
 -1       192-2.30970E-01-9.56710E-02 0.00000E+00
 -1       193-4.87730E-02-2.45196E-01 0.00000E+00
 -1       194-1.38893E-01-2.07867E-01 0.00000E+00
 -1       195-2.07867E-01-1.38893E-01 0.00000E+00
 -1       196-2.45196E-01-4.87730E-02 0.00000E+00
 -1       197-2.30970E-01 9.56710E-02 0.00000E+00
 -1       198-1.76777E-01 1.76777E-01 0.00000E+00
 -1       199-9.56710E-02 2.30970E-01 0.00000E+00
 -1       200-2.45196E-01 4.87730E-02 0.00000E+00
 -1       201-2.07867E-01 1.38893E-01 0.00000E+00
 -1       202-1.38893E-01 2.07867E-01 0.00000E+00
 -1       203-4.87730E-02 2.45196E-01 0.00000E+00
 -1       204 9.56710E-02 4.23097E+00 0.00000E+00
 -1       205 1.76777E-01 4.17678E+00 0.00000E+00
 -1       206 2.30970E-01 4.09567E+00 0.00000E+00
 -1       207 4.87730E-02 4.24520E+00 0.00000E+00
 -1       208 1.38893E-01 4.20787E+00 0.00000E+00
 -1       209 2.07867E-01 4.13889E+00 0.00000E+00
 -1       210 2.45196E-01 4.04877E+00 0.00000E+00
 -1       211 2.30970E-01 3.90433E+00 0.00000E+00
 -1       212 1.76777E-01 3.82322E+00 0.00000E+00
 -1       213 9.56710E-02 3.76903E+00 0.00000E+00
 -1       214 2.45196E-01 3.95123E+00 0.00000E+00
 -1       215 2.07867E-01 3.86111E+00 0.00000E+00
 -1       216 1.38893E-01 3.79213E+00 0.00000E+00
 -1       217 4.87730E-02 3.75480E+00 0.00000E+00
 -1       218-9.56710E-02 3.76903E+00 0.00000E+00
 -1       219-1.76777E-01 3.82322E+00 0.00000E+00
 -1       220-2.30970E-01 3.90433E+00 0.00000E+00
 -1       221-4.87730E-02 3.75480E+00 0.00000E+00
 -1       222-1.38893E-01 3.79213E+00 0.00000E+00
 -1       223-2.07867E-01 3.86111E+00 0.00000E+00
 -1       224-2.45196E-01 3.95123E+00 0.00000E+00
 -1       225-2.30970E-01 4.09567E+00 0.00000E+00
 -1       226-1.76777E-01 4.17678E+00 0.00000E+00
 -1       227-9.56710E-02 4.23097E+00 0.00000E+00
 -1       228-2.45196E-01 4.04877E+00 0.00000E+00
 -1       229-2.07867E-01 4.13889E+00 0.00000E+00
 -1       230-1.38893E-01 4.20787E+00 0.00000E+00
 -1       231-4.87730E-02 4.24520E+00 0.00000E+00
 -1       232 4.09567E+00 8.23097E+00 0.00000E+00
 -1       233 4.17678E+00 8.17678E+00 0.00000E+00
 -1       234 4.23097E+00 8.09567E+00 0.00000E+00
 -1       235 4.04877E+00 8.24520E+00 0.00000E+00
 -1       236 4.13889E+00 8.20787E+00 0.00000E+00
 -1       237 4.20787E+00 8.13889E+00 0.00000E+00
 -1       238 4.24520E+00 8.04877E+00 0.00000E+00
 -1       239 4.23097E+00 7.90433E+00 0.00000E+00
 -1       240 4.17678E+00 7.82322E+00 0.00000E+00
 -1       241 4.09567E+00 7.76903E+00 0.00000E+00
 -1       242 4.24520E+00 7.95123E+00 0.00000E+00
 -1       243 4.20787E+00 7.86111E+00 0.00000E+00
 -1       244 4.13889E+00 7.79213E+00 0.00000E+00
 -1       245 4.04877E+00 7.75480E+00 0.00000E+00
 -1       246 3.90433E+00 7.76903E+00 0.00000E+00
 -1       247 3.82322E+00 7.82322E+00 0.00000E+00
 -1       248 3.76903E+00 7.90433E+00 0.00000E+00
 -1       249 3.95123E+00 7.75480E+00 0.00000E+00
 -1       250 3.86111E+00 7.79213E+00 0.00000E+00
 -1       251 3.79213E+00 7.86111E+00 0.00000E+00
 -1       252 3.75480E+00 7.95123E+00 0.00000E+00
 -1       253 3.76903E+00 8.09567E+00 0.00000E+00
 -1       254 3.82322E+00 8.17678E+00 0.00000E+00
 -1       255 3.90433E+00 8.23097E+00 0.00000E+00
 -1       256 3.75480E+00 8.04877E+00 0.00000E+00
 -1       257 3.79213E+00 8.13889E+00 0.00000E+00
 -1       258 3.86111E+00 8.20787E+00 0.00000E+00
 -1       259 3.95123E+00 8.24520E+00 0.00000E+00
 -1       260 2.17112E-01 8.99310E-02 0.00000E+00
 -1       261 1.66170E-01 1.66170E-01 0.00000E+00
 -1       262 8.99310E-02 2.17112E-01 0.00000E+00
 -1       263 2.30485E-01 4.58460E-02 0.00000E+00
 -1       264 1.95395E-01 1.30559E-01 0.00000E+00
 -1       265 1.30559E-01 1.95395E-01 0.00000E+00
 -1       266 4.58460E-02 2.30485E-01 0.00000E+00
 -1       267 8.99310E-02-2.17112E-01 0.00000E+00
 -1       268 1.66170E-01-1.66170E-01 0.00000E+00
 -1       269 2.17112E-01-8.99310E-02 0.00000E+00
 -1       270 4.58460E-02-2.30485E-01 0.00000E+00
 -1       271 1.30559E-01-1.95395E-01 0.00000E+00
 -1       272 1.95395E-01-1.30559E-01 0.00000E+00
 -1       273 2.30485E-01-4.58460E-02 0.00000E+00
 -1       274-2.17112E-01-8.99310E-02 0.00000E+00
 -1       275-1.66170E-01-1.66170E-01 0.00000E+00
 -1       276-8.99310E-02-2.17112E-01 0.00000E+00
 -1       277-2.30485E-01-4.58460E-02 0.00000E+00
 -1       278-1.95395E-01-1.30559E-01 0.00000E+00
 -1       279-1.30559E-01-1.95395E-01 0.00000E+00
 -1       280-4.58460E-02-2.30485E-01 0.00000E+00
 -1       281-8.99310E-02 2.17112E-01 0.00000E+00
 -1       282-1.66170E-01 1.66170E-01 0.00000E+00
 -1       283-2.17112E-01 8.99310E-02 0.00000E+00
 -1       284-4.58460E-02 2.30485E-01 0.00000E+00
 -1       285-1.30559E-01 1.95395E-01 0.00000E+00
 -1       286-1.95395E-01 1.30559E-01 0.00000E+00
 -1       287-2.30485E-01 4.58460E-02 0.00000E+00
 -1       288 2.17112E-01 4.08993E+00 0.00000E+00
 -1       289 1.66170E-01 4.16617E+00 0.00000E+00
 -1       290 8.99310E-02 4.21711E+00 0.00000E+00
 -1       291 2.30485E-01 4.04585E+00 0.00000E+00
 -1       292 1.95395E-01 4.13056E+00 0.00000E+00
 -1       293 1.30559E-01 4.19539E+00 0.00000E+00
 -1       294 4.58460E-02 4.23048E+00 0.00000E+00
 -1       295 8.99310E-02 3.78289E+00 0.00000E+00
 -1       296 1.66170E-01 3.83383E+00 0.00000E+00
 -1       297 2.17112E-01 3.91007E+00 0.00000E+00
 -1       298 4.58460E-02 3.76952E+00 0.00000E+00
 -1       299 1.30559E-01 3.80461E+00 0.00000E+00
 -1       300 1.95395E-01 3.86944E+00 0.00000E+00
 -1       301 2.30485E-01 3.95415E+00 0.00000E+00
 -1       302-2.17112E-01 3.91007E+00 0.00000E+00
 -1       303-1.66170E-01 3.83383E+00 0.00000E+00
 -1       304-8.99310E-02 3.78289E+00 0.00000E+00
 -1       305-2.30485E-01 3.95415E+00 0.00000E+00
 -1       306-1.95395E-01 3.86944E+00 0.00000E+00
 -1       307-1.30559E-01 3.80461E+00 0.00000E+00
 -1       308-4.58460E-02 3.76952E+00 0.00000E+00
 -1       309-8.99310E-02 4.21711E+00 0.00000E+00
 -1       310-1.66170E-01 4.16617E+00 0.00000E+00
 -1       311-2.17112E-01 4.08993E+00 0.00000E+00
 -1       312-4.58460E-02 4.23048E+00 0.00000E+00
 -1       313-1.30559E-01 4.19539E+00 0.00000E+00
 -1       314-1.95395E-01 4.13056E+00 0.00000E+00
 -1       315-2.30485E-01 4.04585E+00 0.00000E+00
 -1       316 4.21711E+00 8.08993E+00 0.00000E+00
 -1       317 4.16617E+00 8.16617E+00 0.00000E+00
 -1       318 4.08993E+00 8.21711E+00 0.00000E+00
 -1       319 4.23048E+00 8.04585E+00 0.00000E+00
 -1       320 4.19539E+00 8.13056E+00 0.00000E+00
 -1       321 4.13056E+00 8.19540E+00 0.00000E+00
 -1       322 4.04585E+00 8.23048E+00 0.00000E+00
 -1       323 4.08993E+00 7.78289E+00 0.00000E+00
 -1       324 4.16617E+00 7.83383E+00 0.00000E+00
 -1       325 4.21711E+00 7.91007E+00 0.00000E+00
 -1       326 4.04585E+00 7.76952E+00 0.00000E+00
 -1       327 4.13056E+00 7.80461E+00 0.00000E+00
 -1       328 4.19539E+00 7.86944E+00 0.00000E+00
 -1       329 4.23048E+00 7.95415E+00 0.00000E+00
 -1       330 3.78289E+00 7.91007E+00 0.00000E+00
 -1       331 3.83383E+00 7.83383E+00 0.00000E+00
 -1       332 3.91007E+00 7.78289E+00 0.00000E+00
 -1       333 3.76952E+00 7.95415E+00 0.00000E+00
 -1       334 3.80461E+00 7.86944E+00 0.00000E+00
 -1       335 3.86944E+00 7.80461E+00 0.00000E+00
 -1       336 3.95415E+00 7.76952E+00 0.00000E+00
 -1       337 3.91007E+00 8.21711E+00 0.00000E+00
 -1       338 3.83383E+00 8.16617E+00 0.00000E+00
 -1       339 3.78289E+00 8.08993E+00 0.00000E+00
 -1       340 3.95415E+00 8.23048E+00 0.00000E+00
 -1       341 3.86944E+00 8.19540E+00 0.00000E+00
 -1       342 3.80461E+00 8.13056E+00 0.00000E+00
 -1       343 3.76952E+00 8.04585E+00 0.00000E+00
 -1       344 3.50000E+00 7.09375E+00 0.00000E+00
 -1       345 3.50000E+00 6.68750E+00 0.00000E+00
 -1       346 3.50000E+00 6.28125E+00 0.00000E+00
 -1       347 3.50000E+00 5.87500E+00 0.00000E+00
 -1       348 3.50000E+00 5.46875E+00 0.00000E+00
 -1       349 3.50000E+00 5.06250E+00 0.00000E+00
 -1       350 3.50000E+00 4.65625E+00 0.00000E+00
 -1       351 3.50000E+00 4.25000E+00 0.00000E+00
 -1       352 3.50000E+00 3.84375E+00 0.00000E+00
 -1       353 3.50000E+00 3.43750E+00 0.00000E+00
 -1       354 3.50000E+00 3.03125E+00 0.00000E+00
 -1       355 3.50000E+00 2.62500E+00 0.00000E+00
 -1       356 3.50000E+00 2.21875E+00 0.00000E+00
 -1       357 3.50000E+00 1.81250E+00 0.00000E+00
 -1       358 3.50000E+00 1.40625E+00 0.00000E+00
 -1       359 3.50000E+00 7.29688E+00 0.00000E+00
 -1       360 3.50000E+00 6.89063E+00 0.00000E+00
 -1       361 3.50000E+00 6.48438E+00 0.00000E+00
 -1       362 3.50000E+00 6.07813E+00 0.00000E+00
 -1       363 3.50000E+00 5.67188E+00 0.00000E+00
 -1       364 3.50000E+00 5.26563E+00 0.00000E+00
 -1       365 3.50000E+00 4.85938E+00 0.00000E+00
 -1       366 3.50000E+00 4.45313E+00 0.00000E+00
 -1       367 3.50000E+00 4.04688E+00 0.00000E+00
 -1       368 3.50000E+00 3.64063E+00 0.00000E+00
 -1       369 3.50000E+00 3.23438E+00 0.00000E+00
 -1       370 3.50000E+00 2.82813E+00 0.00000E+00
 -1       371 3.50000E+00 2.42188E+00 0.00000E+00
 -1       372 3.50000E+00 2.01563E+00 0.00000E+00
 -1       373 3.50000E+00 1.60938E+00 0.00000E+00
 -1       374 3.50000E+00 1.20313E+00 0.00000E+00
 -1       375 4.25000E+00 7.50000E+00 0.00000E+00
 -1       376 4.00000E+00 7.50000E+00 0.00000E+00
 -1       377 3.75000E+00 7.50000E+00 0.00000E+00
 -1       378 4.37500E+00 7.50000E+00 0.00000E+00
 -1       379 4.12500E+00 7.50000E+00 0.00000E+00
 -1       380 3.87500E+00 7.50000E+00 0.00000E+00
 -1       381 3.62500E+00 7.50000E+00 0.00000E+00
 -1       382 4.50000E+00 1.40625E+00 0.00000E+00
 -1       383 4.50000E+00 1.81250E+00 0.00000E+00
 -1       384 4.50000E+00 2.21875E+00 0.00000E+00
 -1       385 4.50000E+00 2.62500E+00 0.00000E+00
 -1       386 4.50000E+00 3.03125E+00 0.00000E+00
 -1       387 4.50000E+00 3.43750E+00 0.00000E+00
 -1       388 4.50000E+00 3.84375E+00 0.00000E+00
 -1       389 4.50000E+00 4.25000E+00 0.00000E+00
 -1       390 4.50000E+00 4.65625E+00 0.00000E+00
 -1       391 4.50000E+00 5.06250E+00 0.00000E+00
 -1       392 4.50000E+00 5.46875E+00 0.00000E+00
 -1       393 4.50000E+00 5.87500E+00 0.00000E+00
 -1       394 4.50000E+00 6.28125E+00 0.00000E+00
 -1       395 4.50000E+00 6.68750E+00 0.00000E+00
 -1       396 4.50000E+00 7.09375E+00 0.00000E+00
 -1       397 4.50000E+00 1.20313E+00 0.00000E+00
 -1       398 4.50000E+00 1.60938E+00 0.00000E+00
 -1       399 4.50000E+00 2.01563E+00 0.00000E+00
 -1       400 4.50000E+00 2.42188E+00 0.00000E+00
 -1       401 4.50000E+00 2.82813E+00 0.00000E+00
 -1       402 4.50000E+00 3.23438E+00 0.00000E+00
 -1       403 4.50000E+00 3.64063E+00 0.00000E+00
 -1       404 4.50000E+00 4.04688E+00 0.00000E+00
 -1       405 4.50000E+00 4.45313E+00 0.00000E+00
 -1       406 4.50000E+00 4.85938E+00 0.00000E+00
 -1       407 4.50000E+00 5.26563E+00 0.00000E+00
 -1       408 4.50000E+00 5.67188E+00 0.00000E+00
 -1       409 4.50000E+00 6.07813E+00 0.00000E+00
 -1       410 4.50000E+00 6.48438E+00 0.00000E+00
 -1       411 4.50000E+00 6.89063E+00 0.00000E+00
 -1       412 4.50000E+00 7.29688E+00 0.00000E+00
 -1       413 4.25000E+00 1.00000E+00 0.00000E+00
 -1       414 4.00000E+00 1.00000E+00 0.00000E+00
 -1       415 3.75000E+00 1.00000E+00 0.00000E+00
 -1       416 4.37500E+00 1.00000E+00 0.00000E+00
 -1       417 4.12500E+00 1.00000E+00 0.00000E+00
 -1       418 3.87500E+00 1.00000E+00 0.00000E+00
 -1       419 3.62500E+00 1.00000E+00 0.00000E+00
 -1       420 3.25000E+00-5.00000E-01 0.00000E+00
 -1       421 3.50000E+00-5.00000E-01 0.00000E+00
 -1       422 3.75000E+00-5.00000E-01 0.00000E+00
 -1       423 3.12500E+00-5.00000E-01 0.00000E+00
 -1       424 3.37500E+00-5.00000E-01 0.00000E+00
 -1       425 3.62500E+00-5.00000E-01 0.00000E+00
 -1       426 3.87500E+00-5.00000E-01 0.00000E+00
 -1       427 3.00000E+00-2.50000E-01 0.00000E+00
 -1       428 3.00000E+00-0.00000E+00 0.00000E+00
 -1       429 3.00000E+00 2.50000E-01 0.00000E+00
 -1       430 3.00000E+00-3.75000E-01 0.00000E+00
 -1       431 3.00000E+00-1.25000E-01 0.00000E+00
 -1       432 3.00000E+00 1.25000E-01 0.00000E+00
 -1       433 3.00000E+00 3.75000E-01 0.00000E+00
 -1       434 1.50000E+00-5.00000E-01 0.00000E+00
 -1       435 2.00000E+00-5.00000E-01 0.00000E+00
 -1       436 2.50000E+00-5.00000E-01 0.00000E+00
 -1       437 1.25000E+00-5.00000E-01 0.00000E+00
 -1       438 1.75000E+00-5.00000E-01 0.00000E+00
 -1       439 2.25000E+00-5.00000E-01 0.00000E+00
 -1       440 2.75000E+00-5.00000E-01 0.00000E+00
 -1       441 1.00000E+00-2.50000E-01 0.00000E+00
 -1       442 1.00000E+00-0.00000E+00 0.00000E+00
 -1       443 1.00000E+00 2.50000E-01 0.00000E+00
 -1       444 1.00000E+00-3.75000E-01 0.00000E+00
 -1       445 1.00000E+00-1.25000E-01 0.00000E+00
 -1       446 1.00000E+00 1.25000E-01 0.00000E+00
 -1       447 1.00000E+00 3.75000E-01 0.00000E+00
 -1       448-5.00000E-01 7.50000E-01 0.00000E+00
 -1       449-5.00000E-01 5.00000E-01 0.00000E+00
 -1       450-5.00000E-01 2.50000E-01 0.00000E+00
 -1       451-5.00000E-01 8.75000E-01 0.00000E+00
 -1       452-5.00000E-01 6.25000E-01 0.00000E+00
 -1       453-5.00000E-01 3.75000E-01 0.00000E+00
 -1       454-5.00000E-01 1.25000E-01 0.00000E+00
 -1       455 2.50000E-01 1.00000E+00 0.00000E+00
 -1       456 0.00000E+00 1.00000E+00 0.00000E+00
 -1       457-2.50000E-01 1.00000E+00 0.00000E+00
 -1       458 3.75000E-01 1.00000E+00 0.00000E+00
 -1       459 1.25000E-01 1.00000E+00 0.00000E+00
 -1       460-1.25000E-01 1.00000E+00 0.00000E+00
 -1       461-3.75000E-01 1.00000E+00 0.00000E+00
 -1       462-5.00000E-01 3.18750E+00 0.00000E+00
 -1       463-5.00000E-01 2.87500E+00 0.00000E+00
 -1       464-5.00000E-01 2.56250E+00 0.00000E+00
 -1       465-5.00000E-01 2.25000E+00 0.00000E+00
 -1       466-5.00000E-01 1.93750E+00 0.00000E+00
 -1       467-5.00000E-01 1.62500E+00 0.00000E+00
 -1       468-5.00000E-01 1.31250E+00 0.00000E+00
 -1       469-5.00000E-01 3.34375E+00 0.00000E+00
 -1       470-5.00000E-01 3.03125E+00 0.00000E+00
 -1       471-5.00000E-01 2.71875E+00 0.00000E+00
 -1       472-5.00000E-01 2.40625E+00 0.00000E+00
 -1       473-5.00000E-01 2.09375E+00 0.00000E+00
 -1       474-5.00000E-01 1.78125E+00 0.00000E+00
 -1       475-5.00000E-01 1.46875E+00 0.00000E+00
 -1       476-5.00000E-01 1.15625E+00 0.00000E+00
 -1       477 2.50000E-01 3.50000E+00 0.00000E+00
 -1       478 0.00000E+00 3.50000E+00 0.00000E+00
 -1       479-2.50000E-01 3.50000E+00 0.00000E+00
 -1       480 3.75000E-01 3.50000E+00 0.00000E+00
 -1       481 1.25000E-01 3.50000E+00 0.00000E+00
 -1       482-1.25000E-01 3.50000E+00 0.00000E+00
 -1       483-3.75000E-01 3.50000E+00 0.00000E+00
 -1       484 2.39379E-01 4.51715E-01 0.00000E+00
 -1       485 4.20483E-01 8.46700E-02 0.00000E+00
 -1       486 2.91997E-01 6.70679E-01 0.00000E+00
 -1       487 6.99038E-01 2.67582E-01 0.00000E+00
 -1       488-6.03620E-02 5.35140E-01 0.00000E+00
 -1       489 3.71439E-01-9.59320E-02 0.00000E+00
 -1       490 6.72802E-01-5.64000E-03 0.00000E+00
 -1       491 5.10032E-01 3.53025E-01 0.00000E+00
 -1       492 4.65258E-01 2.18848E-01 0.00000E+00
 -1       493 3.74705E-01 4.02370E-01 0.00000E+00
 -1       494 2.08078E-01 3.14246E-01 0.00000E+00
 -1       495 2.98630E-01 1.30723E-01 0.00000E+00
 -1       496 3.36668E-01 2.66547E-01 0.00000E+00
 -1       497-2.80181E-01 5.17570E-01 0.00000E+00
 -1       498-3.01810E-02 7.67570E-01 0.00000E+00
 -1       499-2.65090E-01 7.58785E-01 0.00000E+00
 -1       500 5.78239E-01 4.99736E-01 0.00000E+00
 -1       501 4.69222E-01 6.58563E-01 0.00000E+00
 -1       502 2.65688E-01 5.61197E-01 0.00000E+00
 -1       503 4.21964E-01 5.30466E-01 0.00000E+00
 -1       504 8.36401E-01-2.82000E-03 0.00000E+00
 -1       505 5.86401E-01-2.52820E-01 0.00000E+00
 -1       506 7.93201E-01-2.51410E-01 0.00000E+00
 -1       507 8.49519E-01 3.83791E-01 0.00000E+00
 -1       508 6.85920E-01 1.30971E-01 0.00000E+00
 -1       509 8.42960E-01 1.90485E-01 0.00000E+00
 -1       510 6.04535E-01 3.10303E-01 0.00000E+00
 -1       511 7.06597E-01 4.24182E-01 0.00000E+00
 -1       512 1.45998E-01 8.35340E-01 0.00000E+00
 -1       513 3.42029E-01 8.21999E-01 0.00000E+00
 -1       514 5.46643E-01 3.95150E-02 0.00000E+00
 -1       515 5.75589E-01 1.74909E-01 0.00000E+00
 -1       516 8.95080E-02 4.93427E-01 0.00000E+00
 -1       517 1.17753E-01 6.64383E-01 0.00000E+00
 -1       518-3.01810E-02 3.92570E-01 0.00000E+00
 -1       519 9.25900E-02 3.62199E-01 0.00000E+00
 -1       520 3.95961E-01-5.63100E-03 0.00000E+00
 -1       521 4.35720E-01-2.97966E-01 0.00000E+00
 -1       522 4.91181E-01-1.29225E-01 0.00000E+00
 -1       523 3.10720E-01-4.79660E-02 0.00000E+00
 -1       524 3.13466E-01 4.50200E-02 0.00000E+00
 -1       525 3.38388E-01-3.38388E-01 0.00000E+00
 -1       526 3.33345E-01-1.96818E-01 0.00000E+00
 -1       527-3.38388E-01 3.38388E-01 0.00000E+00
 -1       528-3.75000E-01 0.00000E+00 0.00000E+00
 -1       529-3.65485E-01 1.72835E-01 0.00000E+00
 -1       530-1.87926E-01 3.74270E-01 0.00000E+00
 -1       531-2.65165E-01-2.65165E-01 0.00000E+00
 -1       532-3.46455E-01-1.43506E-01 0.00000E+00
 -1       533 0.00000E+00-3.75000E-01 0.00000E+00
 -1       534 1.72835E-01-3.65485E-01 0.00000E+00
 -1       535-1.43506E-01-3.46455E-01 0.00000E+00
 -1       536 4.42870E-01 1.51759E-01 0.00000E+00
 -1       537 4.00963E-01 2.42697E-01 0.00000E+00
 -1       538 3.17649E-01 1.98635E-01 0.00000E+00
 -1       539 3.59557E-01 1.07697E-01 0.00000E+00
 -1       540 4.87645E-01 2.85936E-01 0.00000E+00
 -1       541 4.42369E-01 3.77698E-01 0.00000E+00
 -1       542 3.55687E-01 3.34458E-01 0.00000E+00
 -1       543 3.07042E-01 4.27042E-01 0.00000E+00
 -1       544 2.23728E-01 3.82980E-01 0.00000E+00
 -1       545 2.72373E-01 2.90396E-01 0.00000E+00
 -1       546 1.92427E-01 2.45511E-01 0.00000E+00
 -1       547 2.37703E-01 1.53750E-01 0.00000E+00
 -1       548-3.90090E-01 5.08785E-01 0.00000E+00
 -1       549-2.72636E-01 6.38177E-01 0.00000E+00
 -1       550-3.82545E-01 7.54392E-01 0.00000E+00
 -1       551-1.70271E-01 5.26355E-01 0.00000E+00
 -1       552-4.52710E-02 6.51355E-01 0.00000E+00
 -1       553-1.47636E-01 7.63177E-01 0.00000E+00
 -1       554-1.50900E-02 8.83785E-01 0.00000E+00
 -1       555-2.57545E-01 8.79392E-01 0.00000E+00
 -1       556 3.98334E-01 4.66418E-01 0.00000E+00
 -1       557 3.43826E-01 5.45832E-01 0.00000E+00
 -1       558 2.52533E-01 5.06456E-01 0.00000E+00
 -1       559 5.44136E-01 4.26381E-01 0.00000E+00
 -1       560 5.00101E-01 5.15101E-01 0.00000E+00
 -1       561 6.12343E-01 5.73091E-01 0.00000E+00
 -1       562 5.57834E-01 6.52505E-01 0.00000E+00
 -1       563 4.45593E-01 5.94515E-01 0.00000E+00
 -1       564 3.80609E-01 6.64621E-01 0.00000E+00
 -1       565 2.78842E-01 6.15938E-01 0.00000E+00
 -1       566 7.71600E-01-3.75705E-01 0.00000E+00
 -1       567 6.89801E-01-2.52115E-01 0.00000E+00
 -1       568 5.43201E-01-3.76410E-01 0.00000E+00
 -1       569 8.96600E-01-2.50705E-01 0.00000E+00
 -1       570 9.18201E-01-1.41000E-03 0.00000E+00
 -1       571 8.14801E-01-1.27115E-01 0.00000E+00
 -1       572 7.54602E-01-4.23000E-03 0.00000E+00
 -1       573 6.29602E-01-1.29230E-01 0.00000E+00
 -1       574 9.24759E-01 4.41895E-01 0.00000E+00
 -1       575 8.46240E-01 2.87138E-01 0.00000E+00
 -1       576 9.21480E-01 2.20243E-01 0.00000E+00
 -1       577 7.74278E-01 3.25686E-01 0.00000E+00
 -1       578 6.92479E-01 1.99276E-01 0.00000E+00
 -1       579 7.64440E-01 1.60728E-01 0.00000E+00
 -1       580 6.79361E-01 6.26650E-02 0.00000E+00
 -1       581 8.39681E-01 9.38330E-02 0.00000E+00
 -1       582 5.57283E-01 3.31664E-01 0.00000E+00
 -1       583 6.55566E-01 3.67243E-01 0.00000E+00
 -1       584 6.42418E-01 4.61959E-01 0.00000E+00
 -1       585 6.51786E-01 2.88943E-01 0.00000E+00
 -1       586 7.78058E-01 4.03986E-01 0.00000E+00
 -1       587 7.57627E-01 4.81121E-01 0.00000E+00
 -1       588 7.29990E-02 9.17670E-01 0.00000E+00