    1C
    1UUSER                                                              
    1UDATE              03.april.2020                                   
    1UTIME              21:19:53                                        
    1UHOST                                                              
    1UPGM               CalculiX                                        
    1UVERSION           Version 2.16                             
    1UCOMPILETIME       Mo 25. Nov 18:56:47 CET 2019                    
    1UDIR                                                               
    1UDBN                                                               
    1UMAT    1STEEL                                                     
    1UMAT    2SI0                                                       
    2C                           400                                     1
 -1         1 0.00000E+00 1.05430E-01 0.00000E+00
 -1         3 1.05430E-01 0.00000E+00 0.00000E+00
 -1         4 1.14300E-01 0.00000E+00 0.00000E+00
 -1         5 0.00000E+00 1.14300E-01 0.00000E+00
 -1         6 1.14300E-01 0.00000E+00 0.00000E+00
 -1         7 1.23170E-01 0.00000E+00 0.00000E+00
 -1         8 1.23170E-01 1.14300E-01 0.00000E+00
 -1         9 1.14300E-01 1.14300E-01 0.00000E+00
 -1        10 8.27200E-03 1.05105E-01 0.00000E+00
 -1        11 1.64930E-02 1.04132E-01 0.00000E+00
 -1        12 2.46120E-02 1.02517E-01 0.00000E+00
 -1        13 3.25800E-02 1.00270E-01 0.00000E+00
 -1        14 4.03460E-02 9.74050E-02 0.00000E+00
 -1        15 4.78640E-02 9.39390E-02 0.00000E+00
 -1        16 5.50870E-02 8.98940E-02 0.00000E+00
 -1        17 6.19700E-02 8.52950E-02 0.00000E+00
 -1        18 6.84710E-02 8.01700E-02 0.00000E+00
 -1        19 7.45500E-02 7.45500E-02 0.00000E+00
 -1        20 8.01700E-02 6.84710E-02 0.00000E+00
 -1        21 8.52950E-02 6.19700E-02 0.00000E+00
 -1        22 8.98940E-02 5.50870E-02 0.00000E+00
 -1        23 9.39390E-02 4.78640E-02 0.00000E+00
 -1        24 9.74050E-02 4.03460E-02 0.00000E+00
 -1        25 1.00270E-01 3.25800E-02 0.00000E+00
 -1        26 1.02517E-01 2.46120E-02 0.00000E+00
 -1        27 1.04132E-01 1.64930E-02 0.00000E+00
 -1        28 1.05105E-01 8.27200E-03 0.00000E+00
 -1        29 4.13900E-03 1.05349E-01 0.00000E+00
 -1        30 1.23920E-02 1.04699E-01 0.00000E+00
 -1        31 2.05680E-02 1.03404E-01 0.00000E+00
 -1        32 2.86180E-02 1.01472E-01 0.00000E+00
 -1        33 3.64910E-02 9.89140E-02 0.00000E+00
 -1        34 4.41390E-02 9.57460E-02 0.00000E+00
 -1        35 5.15150E-02 9.19870E-02 0.00000E+00
 -1        36 5.85740E-02 8.76620E-02 0.00000E+00
 -1        37 6.52710E-02 8.27960E-02 0.00000E+00
 -1        38 7.15660E-02 7.74200E-02 0.00000E+00
 -1        39 7.74200E-02 7.15660E-02 0.00000E+00
 -1        40 8.27960E-02 6.52710E-02 0.00000E+00
 -1        41 8.76620E-02 5.85740E-02 0.00000E+00
 -1        42 9.19870E-02 5.15150E-02 0.00000E+00
 -1        43 9.57460E-02 4.41390E-02 0.00000E+00
 -1        44 9.89140E-02 3.64910E-02 0.00000E+00
 -1        45 1.01472E-01 2.86180E-02 0.00000E+00
 -1        46 1.03404E-01 2.05680E-02 0.00000E+00
 -1        47 1.04699E-01 1.23920E-02 0.00000E+00
 -1        48 1.05349E-01 4.13900E-03 0.00000E+00
 -1        49 1.07647E-01 0.00000E+00 0.00000E+00
 -1        50 1.09865E-01 0.00000E+00 0.00000E+00
 -1        51 1.12082E-01 0.00000E+00 0.00000E+00
 -1        52 1.06539E-01 0.00000E+00 0.00000E+00
 -1        53 1.08756E-01 0.00000E+00 0.00000E+00
 -1        54 1.10974E-01 0.00000E+00 0.00000E+00
 -1        55 1.13191E-01 0.00000E+00 0.00000E+00
 -1        56 1.14055E-01 7.47600E-03 0.00000E+00
 -1        57 1.13322E-01 1.49190E-02 0.00000E+00
 -1        58 1.12104E-01 2.22990E-02 0.00000E+00
 -1        59 1.10405E-01 2.95830E-02 0.00000E+00
 -1        60 1.08234E-01 3.67410E-02 0.00000E+00
 -1        61 1.05599E-01 4.37410E-02 0.00000E+00
 -1        62 1.02513E-01 5.05540E-02 0.00000E+00
 -1        63 9.89870E-02 5.71500E-02 0.00000E+00
 -1        64 9.50370E-02 6.35020E-02 0.00000E+00
 -1        65 9.06800E-02 6.95810E-02 0.00000E+00
 -1        66 8.59350E-02 7.53630E-02 0.00000E+00
 -1        67 8.08220E-02 8.08220E-02 0.00000E+00
 -1        68 7.53630E-02 8.59350E-02 0.00000E+00
 -1        69 6.95810E-02 9.06800E-02 0.00000E+00
 -1        70 6.35020E-02 9.50370E-02 0.00000E+00
 -1        71 5.71500E-02 9.89870E-02 0.00000E+00
 -1        72 5.05540E-02 1.02513E-01 0.00000E+00
 -1        73 4.37410E-02 1.05599E-01 0.00000E+00
 -1        74 3.67410E-02 1.08234E-01 0.00000E+00
 -1        75 2.95830E-02 1.10405E-01 0.00000E+00
 -1        76 2.22990E-02 1.12104E-01 0.00000E+00
 -1        77 1.49190E-02 1.13322E-01 0.00000E+00
 -1        78 7.47600E-03 1.14055E-01 0.00000E+00
 -1        79 1.14239E-01 3.74000E-03 0.00000E+00
 -1        80 1.13750E-01 1.12030E-02 0.00000E+00
 -1        81 1.12773E-01 1.86190E-02 0.00000E+00
 -1        82 1.11314E-01 2.59550E-02 0.00000E+00
 -1        83 1.09378E-01 3.31800E-02 0.00000E+00
 -1        84 1.06974E-01 4.02620E-02 0.00000E+00
 -1        85 1.04112E-01 4.71720E-02 0.00000E+00
 -1        86 1.00804E-01 5.38810E-02 0.00000E+00
 -1        87 9.70640E-02 6.03580E-02 0.00000E+00
 -1        88 9.29080E-02 6.65770E-02 0.00000E+00
 -1        89 8.83550E-02 7.25110E-02 0.00000E+00
 -1        90 8.34230E-02 7.81350E-02 0.00000E+00
 -1        91 7.81350E-02 8.34230E-02 0.00000E+00
 -1        92 7.25110E-02 8.83550E-02 0.00000E+00
 -1        93 6.65770E-02 9.29080E-02 0.00000E+00
 -1        94 6.03580E-02 9.70640E-02 0.00000E+00
 -1        95 5.38810E-02 1.00804E-01 0.00000E+00
 -1        96 4.71720E-02 1.04112E-01 0.00000E+00
 -1        97 4.02620E-02 1.06974E-01 0.00000E+00
 -1        98 3.31800E-02 1.09378E-01 0.00000E+00
 -1        99 2.59550E-02 1.11314E-01 0.00000E+00
 -1       100 1.86190E-02 1.12773E-01 0.00000E+00
 -1       101 1.12030E-02 1.13750E-01 0.00000E+00
 -1       102 3.74000E-03 1.14239E-01 0.00000E+00
 -1       103 0.00000E+00 1.12083E-01 0.00000E+00
 -1       104 0.00000E+00 1.09865E-01 0.00000E+00
 -1       105 0.00000E+00 1.07648E-01 0.00000E+00
 -1       106 0.00000E+00 1.13191E-01 0.00000E+00
 -1       107 0.00000E+00 1.10974E-01 0.00000E+00
 -1       108 0.00000E+00 1.08756E-01 0.00000E+00
 -1       109 0.00000E+00 1.06539E-01 0.00000E+00
 -1       110 1.16517E-01 0.00000E+00 0.00000E+00
 -1       111 1.18735E-01 0.00000E+00 0.00000E+00
 -1       112 1.20952E-01 0.00000E+00 0.00000E+00
 -1       113 1.15409E-01 0.00000E+00 0.00000E+00
 -1       114 1.17626E-01 0.00000E+00 0.00000E+00
 -1       115 1.19844E-01 0.00000E+00 0.00000E+00
 -1       116 1.22061E-01 0.00000E+00 0.00000E+00
 -1       117 1.23170E-01 7.14400E-03 0.00000E+00
 -1       118 1.23170E-01 1.42870E-02 0.00000E+00
 -1       119 1.23170E-01 2.14310E-02 0.00000E+00
 -1       120 1.23170E-01 2.85750E-02 0.00000E+00
 -1       121 1.23170E-01 3.57190E-02 0.00000E+00
 -1       122 1.23170E-01 4.28620E-02 0.00000E+00
 -1       123 1.23170E-01 5.00060E-02 0.00000E+00
 -1       124 1.23170E-01 5.71500E-02 0.00000E+00
 -1       125 1.23170E-01 6.42940E-02 0.00000E+00
 -1       126 1.23170E-01 7.14370E-02 0.00000E+00
 -1       127 1.23170E-01 7.85810E-02 0.00000E+00
 -1       128 1.23170E-01 8.57250E-02 0.00000E+00
 -1       129 1.23170E-01 9.28690E-02 0.00000E+00
 -1       130 1.23170E-01 1.00012E-01 0.00000E+00
 -1       131 1.23170E-01 1.07156E-01 0.00000E+00
 -1       132 1.23170E-01 3.57200E-03 0.00000E+00
 -1       133 1.23170E-01 1.07160E-02 0.00000E+00
 -1       134 1.23170E-01 1.78590E-02 0.00000E+00
 -1       135 1.23170E-01 2.50030E-02 0.00000E+00
 -1       136 1.23170E-01 3.21470E-02 0.00000E+00
 -1       137 1.23170E-01 3.92910E-02 0.00000E+00
 -1       138 1.23170E-01 4.64340E-02 0.00000E+00
 -1       139 1.23170E-01 5.35780E-02 0.00000E+00
 -1       140 1.23170E-01 6.07220E-02 0.00000E+00
 -1       141 1.23170E-01 6.78660E-02 0.00000E+00
 -1       142 1.23170E-01 7.50090E-02 0.00000E+00
 -1       143 1.23170E-01 8.21530E-02 0.00000E+00
 -1       144 1.23170E-01 8.92970E-02 0.00000E+00
 -1       145 1.23170E-01 9.64410E-02 0.00000E+00
 -1       146 1.23170E-01 1.03584E-01 0.00000E+00
 -1       147 1.23170E-01 1.10728E-01 0.00000E+00
 -1       148 1.20953E-01 1.14300E-01 0.00000E+00
 -1       149 1.18735E-01 1.14300E-01 0.00000E+00
 -1       150 1.16518E-01 1.14300E-01 0.00000E+00
 -1       151 1.22061E-01 1.14300E-01 0.00000E+00
 -1       152 1.19844E-01 1.14300E-01 0.00000E+00
 -1       153 1.17626E-01 1.14300E-01 0.00000E+00
 -1       154 1.15409E-01 1.14300E-01 0.00000E+00
 -1       155 1.14300E-01 1.07156E-01 0.00000E+00
 -1       156 1.14300E-01 1.00013E-01 0.00000E+00
 -1       157 1.14300E-01 9.28690E-02 0.00000E+00
 -1       158 1.14300E-01 8.57250E-02 0.00000E+00
 -1       159 1.14300E-01 7.85810E-02 0.00000E+00
 -1       160 1.14300E-01 7.14380E-02 0.00000E+00
 -1       161 1.14300E-01 6.42940E-02 0.00000E+00
 -1       162 1.14300E-01 5.71500E-02 0.00000E+00
 -1       163 1.14300E-01 5.00060E-02 0.00000E+00
 -1       164 1.14300E-01 4.28630E-02 0.00000E+00
 -1       165 1.14300E-01 3.57190E-02 0.00000E+00
 -1       166 1.14300E-01 2.85750E-02 0.00000E+00
 -1       167 1.14300E-01 2.14310E-02 0.00000E+00
 -1       168 1.14300E-01 1.42880E-02 0.00000E+00
 -1       169 1.14300E-01 7.14400E-03 0.00000E+00
 -1       170 1.14300E-01 1.10728E-01 0.00000E+00
 -1       171 1.14300E-01 1.03584E-01 0.00000E+00
 -1       172 1.14300E-01 9.64410E-02 0.00000E+00
 -1       173 1.14300E-01 8.92970E-02 0.00000E+00
 -1       174 1.14300E-01 8.21530E-02 0.00000E+00
 -1       175 1.14300E-01 7.50090E-02 0.00000E+00
 -1       176 1.14300E-01 6.78660E-02 0.00000E+00
 -1       177 1.14300E-01 6.07220E-02 0.00000E+00
 -1       178 1.14300E-01 5.35780E-02 0.00000E+00
 -1       179 1.14300E-01 4.64340E-02 0.00000E+00
 -1       180 1.14300E-01 3.92910E-02 0.00000E+00
 -1       181 1.14300E-01 3.21470E-02 0.00000E+00
 -1       182 1.14300E-01 2.50030E-02 0.00000E+00
 -1       183 1.14300E-01 1.78590E-02 0.00000E+00
 -1       184 1.14300E-01 1.07160E-02 0.00000E+00
 -1       185 1.14300E-01 3.57200E-03 0.00000E+00
 -1       186 1.01970E-02 1.09408E-01 0.00000E+00
 -1       187 1.11594E-01 7.46000E-03 0.00000E+00
 -1       188 1.09376E-01 7.46000E-03 0.00000E+00
 -1       189 5.25070E-02 9.64630E-02 0.00000E+00
 -1       190 3.81600E-02 1.02935E-01 0.00000E+00
 -1       191 4.54500E-02 9.99590E-02 0.00000E+00
 -1       192 1.02935E-01 3.81600E-02 0.00000E+00
 -1       193 9.64630E-02 5.25070E-02 0.00000E+00
 -1       194 9.99590E-02 4.54500E-02 0.00000E+00
 -1       195 1.33450E-02 1.06770E-01 0.00000E+00
 -1       196 5.09800E-03 1.09636E-01 0.00000E+00
 -1       197 6.68500E-03 1.07371E-01 0.00000E+00
 -1       198 1.25580E-02 1.11365E-01 0.00000E+00
 -1       199 6.28700E-03 1.11846E-01 0.00000E+00
 -1       200 2.30380E-02 1.07269E-01 0.00000E+00
 -1       201 3.06760E-02 1.05376E-01 0.00000E+00
 -1       202 1.78220E-02 1.09437E-01 0.00000E+00
 -1       203 6.57760E-02 8.79870E-02 0.00000E+00
 -1       204 5.92940E-02 9.24650E-02 0.00000E+00
 -1       205 8.79870E-02 6.57760E-02 0.00000E+00
 -1       206 7.76860E-02 7.76860E-02 0.00000E+00
 -1       207 8.30520E-02 7.19170E-02 0.00000E+00
 -1       208 7.19170E-02 8.30520E-02 0.00000E+00
 -1       209 9.24650E-02 5.92940E-02 0.00000E+00
 -1       210 1.07269E-01 2.30380E-02 0.00000E+00
 -1       211 1.05376E-01 3.06760E-02 0.00000E+00
 -1       212 1.08604E-01 1.52850E-02 0.00000E+00
 -1       213 1.09539E-01 4.97300E-03 0.00000E+00
 -1       214 1.12536E-01 4.97600E-03 0.00000E+00
 -1       215 4.28980E-02 9.86820E-02 0.00000E+00
 -1       216 4.18050E-02 1.01447E-01 0.00000E+00
 -1       217 3.53700E-02 1.01602E-01 0.00000E+00
 -1       218 5.01860E-02 9.52010E-02 0.00000E+00
 -1       219 4.89790E-02 9.82110E-02 0.00000E+00
 -1       220 5.48290E-02 9.77250E-02 0.00000E+00
 -1       221 4.80020E-02 1.01236E-01 0.00000E+00
 -1       222 4.09500E-02 1.04267E-01 0.00000E+00
 -1       223 1.01602E-01 3.53700E-02 0.00000E+00
 -1       224 1.01447E-01 4.18050E-02 0.00000E+00
 -1       225 9.86820E-02 4.28980E-02 0.00000E+00
 -1       226 1.04267E-01 4.09500E-02 0.00000E+00
 -1       227 1.01236E-01 4.80020E-02 0.00000E+00
 -1       228 9.77250E-02 5.48290E-02 0.00000E+00
 -1       229 9.82110E-02 4.89790E-02 0.00000E+00
 -1       230 9.52010E-02 5.01860E-02 0.00000E+00
 -1       231 3.34300E-03 1.07509E-01 0.00000E+00
 -1       232 5.89200E-03 1.08503E-01 0.00000E+00
 -1       233 2.54900E-03 1.09751E-01 0.00000E+00
 -1       234 7.47900E-03 1.06238E-01 0.00000E+00
 -1       235 1.49190E-02 1.05451E-01 0.00000E+00
 -1       236 1.00150E-02 1.07070E-01 0.00000E+00
 -1       237 1.17710E-02 1.08089E-01 0.00000E+00
 -1       238 7.64800E-03 1.09522E-01 0.00000E+00
 -1       239 5.69300E-03 1.10741E-01 0.00000E+00
 -1       240 3.14300E-03 1.11964E-01 0.00000E+00
 -1       241 1.13770E-02 1.10386E-01 0.00000E+00
 -1       242 9.42200E-03 1.11605E-01 0.00000E+00
 -1       243 1.37390E-02 1.12344E-01 0.00000E+00
 -1       244 6.88100E-03 1.12951E-01 0.00000E+00
 -1       245 3.37080E-02 1.06805E-01 0.00000E+00
 -1       246 3.44180E-02 1.04155E-01 0.00000E+00
 -1       247 2.63100E-02 1.08837E-01 0.00000E+00
 -1       248 2.68570E-02 1.06322E-01 0.00000E+00
 -1       249 1.97650E-02 1.05700E-01 0.00000E+00
 -1       250 2.76440E-02 1.03946E-01 0.00000E+00
 -1       251 1.55830E-02 1.08103E-01 0.00000E+00
 -1       252 1.51900E-02 1.10401E-01 0.00000E+00
 -1       253 2.04300E-02 1.08353E-01 0.00000E+00
 -1       254 2.00600E-02 1.10770E-01 0.00000E+00
 -1       255 5.71910E-02 9.11800E-02 0.00000E+00
 -1       256 5.59010E-02 9.44640E-02 0.00000E+00
 -1       257 6.38730E-02 8.66410E-02 0.00000E+00
 -1       258 6.25350E-02 9.02260E-02 0.00000E+00
 -1       259 6.76790E-02 8.93340E-02 0.00000E+00
 -1       260 6.13980E-02 9.37510E-02 0.00000E+00
 -1       261 8.66410E-02 6.38730E-02 0.00000E+00
 -1       262 8.55200E-02 6.88470E-02 0.00000E+00
 -1       263 8.16110E-02 7.01940E-02 0.00000E+00
 -1       264 8.93340E-02 6.76790E-02 0.00000E+00
 -1       265 8.44940E-02 7.36400E-02 0.00000E+00
 -1       266 7.92540E-02 7.92540E-02 0.00000E+00
 -1       267 8.03690E-02 7.48020E-02 0.00000E+00
 -1       268 7.61180E-02 7.61180E-02 0.00000E+00
 -1       269 7.01940E-02 8.16110E-02 0.00000E+00
 -1       270 6.88470E-02 8.55200E-02 0.00000E+00
 -1       271 7.48020E-02 8.03690E-02 0.00000E+00
 -1       272 7.36400E-02 8.44940E-02 0.00000E+00
 -1       273 9.44640E-02 5.59010E-02 0.00000E+00
 -1       274 9.11800E-02 5.71910E-02 0.00000E+00
 -1       275 9.37510E-02 6.13980E-02 0.00000E+00
 -1       276 9.02260E-02 6.25350E-02 0.00000E+00
 -1       277 1.04155E-01 3.44180E-02 0.00000E+00
 -1       278 1.06805E-01 3.37080E-02 0.00000E+00
 -1       279 1.03946E-01 2.76440E-02 0.00000E+00
 -1       280 1.05700E-01 1.97650E-02 0.00000E+00
 -1       281 1.06322E-01 2.68570E-02 0.00000E+00
 -1       282 1.08837E-01 2.63100E-02 0.00000E+00
 -1       283 1.07403E-01 3.73000E-03 0.00000E+00
 -1       284 1.08990E-01 1.13720E-02 0.00000E+00
 -1       285 1.06855E-01 1.17790E-02 0.00000E+00
 -1       286 1.11349E-01 1.11890E-02 0.00000E+00
 -1       287 1.10354E-01 1.87920E-02 0.00000E+00
 -1       288 1.07937E-01 1.91620E-02 0.00000E+00
 -1       289 1.10729E-01 3.73000E-03 0.00000E+00
 -1       290 1.10566E-01 6.21600E-03 0.00000E+00
 -1       291 1.08593E-01 2.48700E-03 0.00000E+00
 -1       292 1.12458E-01 1.11890E-02 0.00000E+00
 -1       293 1.09458E-01 6.21600E-03 0.00000E+00
 -1       294 1.12065E-01 6.21800E-03 0.00000E+00
 -1       295 1.13296E-01 6.22600E-03 0.00000E+00
 -1       296 1.12309E-01 2.48800E-03 0.00000E+00
 -1       297 1.18268E-01 9.46400E-03 0.00000E+00
 -1       298 1.16518E-01 1.07156E-01 0.00000E+00
 -1       299 1.18735E-01 9.28690E-02 0.00000E+00
 -1       300 1.18735E-01 1.00013E-01 0.00000E+00
 -1       301 1.18735E-01 3.57190E-02 0.00000E+00
 -1       302 1.18735E-01 2.85750E-02 0.00000E+00
 -1       303 1.18735E-01 2.14310E-02 0.00000E+00
 -1       304 1.18735E-01 4.28620E-02 0.00000E+00
 -1       305 1.18735E-01 5.00060E-02 0.00000E+00
 -1       306 1.18735E-01 7.85810E-02 0.00000E+00
 -1       307 1.18735E-01 7.14380E-02 0.00000E+00
 -1       308 1.18735E-01 6.42940E-02 0.00000E+00
 -1       309 1.18501E-01 4.73200E-03 0.00000E+00
 -1       310 1.16284E-01 1.18760E-02 0.00000E+00
 -1       311 1.16401E-01 5.93800E-03 0.00000E+00
 -1       312 1.20719E-01 1.18760E-02 0.00000E+00
 -1       313 1.20836E-01 5.93800E-03 0.00000E+00
 -1       314 1.19844E-01 1.07156E-01 0.00000E+00
 -1       315 1.17509E-01 1.66530E-02 0.00000E+00
 -1       316 1.18735E-01 5.71500E-02 0.00000E+00
 -1       317 1.18735E-01 8.57250E-02 0.00000E+00
 -1       318 1.15778E-01 1.09538E-01 0.00000E+00
 -1       319 1.17257E-01 9.52500E-02 0.00000E+00
 -1       320 1.20213E-01 3.33370E-02 0.00000E+00
 -1       321 1.20213E-01 2.38120E-02 0.00000E+00
 -1       322 1.17257E-01 3.81000E-02 0.00000E+00
 -1       323 1.17257E-01 4.76250E-02 0.00000E+00
 -1       324 1.20213E-01 7.62000E-02 0.00000E+00
 -1       325 1.20213E-01 6.66750E-02 0.00000E+00
 -1       326 1.18618E-01 2.36600E-03 0.00000E+00
 -1       327 1.17451E-01 5.33500E-03 0.00000E+00
 -1       328 1.16459E-01 2.96900E-03 0.00000E+00
 -1       329 1.18385E-01 7.09800E-03 0.00000E+00
 -1       330 1.17276E-01 1.06700E-02 0.00000E+00
 -1       331 1.16342E-01 8.90700E-03 0.00000E+00
 -1       332 1.15292E-01 1.30820E-02 0.00000E+00
 -1       333 1.15350E-01 6.54100E-03 0.00000E+00
 -1       334 1.20894E-01 2.96900E-03 0.00000E+00
 -1       335 1.19669E-01 5.33500E-03 0.00000E+00
 -1       336 1.22003E-01 6.54100E-03 0.00000E+00
 -1       337 1.21944E-01 1.30820E-02 0.00000E+00
 -1       338 1.20777E-01 8.90700E-03 0.00000E+00
 -1       339 1.19493E-01 1.06700E-02 0.00000E+00
 -1       340 1.16517E-01 1.00013E-01 0.00000E+00
 -1       341 1.19289E-01 1.03584E-01 0.00000E+00
 -1       342 1.18181E-01 1.07156E-01 0.00000E+00
 -1       343 1.15409E-01 1.03584E-01 0.00000E+00
 -1       344 1.20953E-01 1.00012E-01 0.00000E+00
 -1       345 1.21507E-01 1.07156E-01 0.00000E+00
 -1       346 1.20398E-01 1.10728E-01 0.00000E+00
 -1       347 1.17626E-01 1.10728E-01 0.00000E+00
 -1       348 1.19114E-01 1.42640E-02 0.00000E+00
 -1       349 1.16897E-01 1.42640E-02 0.00000E+00
 -1       350 1.20953E-01 1.78590E-02 0.00000E+00
 -1       351 1.18122E-01 1.90420E-02 0.00000E+00
 -1       352 1.16517E-01 2.50030E-02 0.00000E+00
 -1       353 1.15905E-01 1.90420E-02 0.00000E+00
 -1       354 1.20953E-01 5.35780E-02 0.00000E+00
 -1       355 1.18735E-01 5.35780E-02 0.00000E+00
 -1       356 1.20953E-01 4.64340E-02 0.00000E+00
 -1       357 1.20953E-01 6.07220E-02 0.00000E+00
 -1       358 1.18735E-01 6.07220E-02 0.00000E+00
 -1       359 1.16517E-01 6.78660E-02 0.00000E+00
 -1       360 1.16517E-01 6.07220E-02 0.00000E+00
 -1       361 1.16517E-01 5.35780E-02 0.00000E+00
 -1       362 1.20953E-01 9.64410E-02 0.00000E+00
 -1       363 1.18735E-01 8.92970E-02 0.00000E+00
 -1       364 1.20953E-01 8.92970E-02 0.00000E+00
 -1       365 1.16517E-01 8.92970E-02 0.00000E+00
 -1       366 1.16517E-01 8.21530E-02 0.00000E+00
 -1       367 1.16517E-01 7.50090E-02 0.00000E+00
 -1       368 1.18735E-01 8.21530E-02 0.00000E+00
 -1       369 1.20953E-01 8.21530E-02 0.00000E+00
 -1       370 1.16148E-01 1.08347E-01 0.00000E+00
 -1       371 1.15039E-01 1.08347E-01 0.00000E+00
 -1       372 1.16148E-01 1.11919E-01 0.00000E+00
 -1       373 1.17996E-01 9.40590E-02 0.00000E+00
 -1       374 1.15778E-01 9.40590E-02 0.00000E+00
 -1       375 1.17996E-01 9.76310E-02 0.00000E+00
 -1       376 1.21692E-01 3.45280E-02 0.00000E+00
 -1       377 1.19474E-01 3.09560E-02 0.00000E+00
 -1       378 1.20953E-01 2.85750E-02 0.00000E+00
 -1       379 1.20953E-01 3.92910E-02 0.00000E+00
 -1       380 1.19474E-01 3.45280E-02 0.00000E+00
 -1       381 1.16517E-01 3.21470E-02 0.00000E+00
 -1       382 1.16517E-01 2.85750E-02 0.00000E+00
 -1       383 1.19474E-01 2.26220E-02 0.00000E+00
 -1       384 1.19474E-01 2.61940E-02 0.00000E+00
 -1       385 1.21692E-01 2.26220E-02 0.00000E+00
 -1       386 1.15778E-01 3.69090E-02 0.00000E+00
 -1       387 1.17996E-01 4.04810E-02 0.00000E+00
 -1       388 1.16517E-01 4.28630E-02 0.00000E+00
 -1       389 1.17996E-01 3.69090E-02 0.00000E+00
 -1       390 1.20953E-01 4.28620E-02 0.00000E+00
 -1       391 1.17996E-01 4.88160E-02 0.00000E+00
 -1       392 1.17996E-01 4.52440E-02 0.00000E+00
 -1       393 1.15778E-01 4.88160E-02 0.00000E+00
 -1       394 1.21692E-01 7.73910E-02 0.00000E+00
 -1       395 1.19474E-01 7.38190E-02 0.00000E+00
 -1       396 1.20953E-01 7.14370E-02 0.00000E+00
 -1       397 1.19474E-01 7.73910E-02 0.00000E+00
 -1       398 1.16517E-01 7.14380E-02 0.00000E+00
 -1       399 1.19474E-01 6.54840E-02 0.00000E+00
 -1       400 1.19474E-01 6.90560E-02 0.00000E+00
 -1       401 1.21692E-01 6.54840E-02 0.00000E+00
 -3
    3C                           102                                     1
 -1         1   10    0    1
 -2        13        14       191       190        33       215       216       217
 -1         2   10    0    1
 -2        14        15       189       191        34       218       219       215
 -1         3   10    0    1
 -2       191       189        71        72       219       220        95       221
 -1         4   10    0    1
 -2       190       191        72        73       216       221        96       222
 -1         5   10    0    1
 -2        25       192       194        24       223       224       225        44
 -1         6   10    0    1
 -2       192        61        62       194       226        85       227       224
 -1         7   10    0    1
 -2       194        62        63       193       227        86       228       229
 -1         8   10    0    1
 -2        24       194       193        23       225       229       230        43
 -1         9   10    0    1
 -2       104       105       197       196       108       231       232       233
 -1        10   10    0    1
 -2       105         1        10       197       109        29       234       231
 -1        11   10    0    1
 -2       197        10        11       195       234        30       235       236
 -1        12   10    0    1
 -2       196       197       195       186       232       236       237       238
 -1        13   10    0    1
 -2       104       196       199       103       233       239       240       107
 -1        14   10    0    1
 -2       196       186       198       199       238       241       242       239
 -1        15   10    0    1
 -2       199       198        77        78       242       243       101       244
 -1        16   10    0    1
 -2       103       199        78         5       240       244       102       106
 -1        17   10    0    1
 -2        73        74       201       190        97       245       246       222
 -1        18   10    0    1
 -2        74        75       200       201        98       247       248       245
 -1        19   10    0    1
 -2       201       200        11        12       248       249        31       250
 -1        20   10    0    1
 -2       190       201        12        13       246       250        32       217
 -1        21   10    0    1
 -2       186       195       202       198       237       251       252       241
 -1        22   10    0    1
 -2       195        11       200       202       235       249       253       251
 -1        23   10    0    1
 -2       202       200        75        76       253       247        99       254
 -1        24   10    0    1
 -2       198       202        76        77       252       254       100       243
 -1        25   10    0    1
 -2        15        16       204       189        35       255       256       218
 -1        26   10    0    1
 -2        16        17       203       204        36       257       258       255
 -1        27   10    0    1
 -2       204       203        69        70       258       259        93       260
 -1        28   10    0    1
 -2       189       204        70        71       256       260        94       220
 -1        29   10    0    1
 -2        21       205       207        20       261       262       263        40
 -1        30   10    0    1
 -2       205        65        66       207       264        89       265       262
 -1        31   10    0    1
 -2       207        66        67       206       265        90       266       267
 -1        32   10    0    1
 -2        20       207       206        19       263       267       268        39
 -1        33   10    0    1
 -2        17        18       208       203        37       269       270       257
 -1        34   10    0    1
 -2        18        19       206       208        38       268       271       269
 -1        35   10    0    1
 -2       208       206        67        68       271       266        91       272
 -1        36   10    0    1
 -2       203       208        68        69       270       272        92       259
 -1        37   10    0    1
 -2        23       193       209        22       230       273       274        42
 -1        38   10    0    1
 -2       193        63        64       209       228        87       275       273
 -1        39   10    0    1
 -2       209        64        65       205       275        88       264       276
 -1        40   10    0    1
 -2        22       209       205        21       274       276       261        41
 -1        41   10    0    1
 -2        61       192       211        60       226       277       278        84
 -1        42   10    0    1
 -2       192        25        26       211       223        45       279       277
 -1        43   10    0    1
 -2       211        26        27       210       279        46       280       281
 -1        44   10    0    1
 -2        60       211       210        59       278       281       282        83
 -1        45   10    0    1
 -2         3       188       212        28       283       284       285        48
 -1        46   10    0    1
 -2       188        57        58       212       286        81       287       284
 -1        47   10    0    1
 -2       212        58        59       210       287        82       282       288
 -1        48   10    0    1
 -2        28       212       210        27       285       288       280        47
 -1        49   10    0    1
 -2        50       187       213        49       289       290       291        53
 -1        50   10    0    1
 -2       187        57       188       213       292       286       293       290
 -1        51   10    0    1
 -2        49       213       188         3       291       293       283        52
 -1        52   10    0    1
 -2        57       187       214        56       292       294       295        80
 -1        53   10    0    1
 -2       187        50        51       214       289        54       296       294
 -1        54   10    0    1
 -2        56       214        51         4       295       296        55        79
 -1        55   10    0    1
 -2       111       309       311       110       326       327       328       114
 -1        56   10    0    1
 -2       309       297       310       311       329       330       331       327
 -1        57   10    0    1
 -2       311       310       168       169       331       332       184       333
 -1        58   10    0    1
 -2       110       311       169         6       328       333       185       113
 -1        59   10    0    1
 -2       111       112       313       309       115       334       335       326
 -1        60   10    0    1
 -2       112         7       117       313       116       132       336       334
 -1        61   10    0    1
 -2       313       117       118       312       336       133       337       338
 -1        62   10    0    1
 -2       309       313       312       297       335       338       339       329
 -1        63   10    0    1
 -2       156       300       314       298       340       341       342       343
 -1        64   10    0    1
 -2       300       130       131       314       344       146       345       341
 -1        65   10    0    1
 -2       314       131         8       148       345       147       151       346
 -1        66   10    0    1
 -2       298       314       148       149       342       346       152       347
 -1        67   10    0    1
 -2       297       312       315       310       339       348       349       330
 -1        68   10    0    1
 -2       312       118       303       315       337       350       351       348
 -1        69   10    0    1
 -2       315       303       166       167       351       352       182       353
 -1        70   10    0    1
 -2       310       315       167       168       349       353       183       332
 -1        71   10    0    1
 -2       122       123       316       305       138       354       355       356
 -1        72   10    0    1
 -2       123       124       308       316       139       357       358       354
 -1        73   10    0    1
 -2       316       308       160       161       358       359       176       360
 -1        74   10    0    1
 -2       305       316       161       162       355       360       177       361
 -1        75   10    0    1
 -2       130       299       317       129       362       363       364       145
 -1        76   10    0    1
 -2       299       158       159       317       365       174       366       363
 -1        77   10    0    1
 -2       317       159       160       306       366       175       367       368
 -1        78   10    0    1
 -2       129       317       306       128       364       368       369       144
 -1        79   10    0    1
 -2       156       298       318       155       343       370       371       171
 -1        80   10    0    1
 -2       298       149       150       318       347       153       372       370