<?xml version="1.0"?>
<VTKFile type="UnstructuredGrid"  version="0.1"  >
<UnstructuredGrid>
<Piece  NumberOfPoints="8270" NumberOfCells="16136">
<Points>
<DataArray  type="Float64"  NumberOfComponents="3"  format="ascii">-0.999877856940653 0.01562917783400803 0  -0.999877856940653 -0.01562917783400779 0  -0.9989008914857115 -0.04687226246994006 0  -0.9969479151539236 -0.07806954893071459 0  -0.994020836168776 -0.1091905548219597 0  -0.9901225145346509 -0.140204872281886 0  -0.985256759242359 -0.1710821976923499 0  -0.979428324547432 -0.2017923612880579 0  -0.9726429053248131 -0.2323053566349828 0  -0.9649071315044797 -0.2625913699491981 0  -0.9562285615934407 -0.2926208092274699 0  -0.9466156752904342 -0.3223643331611536 0  -0.9360778652005416 -0.3517928798051443 0  -0.9246254276578175 -0.3808776949738565 0  -0.912269552664897 -0.4095903603365061 0  -0.8990223129594145 -0.4379028211842264 0  -0.8848966522179168 -0.4657874138418977 0  -0.8699063724087903 -0.4932168926979072 0  -0.8540661203065708 -0.520164456825418 0  -0.8373913731808008 -0.5466037761691487 0  -0.8198984236734248 -0.5725090172720717 0  -0.8016043638794972 -0.5978548685168891 0  -0.7825270686467568 -0.6226165648576288 0  -0.7626851781103821 -0.6467699120171987 0  -0.7420980794800013 -0.6702913101272414 0  -0.7207858880967426 -0.6931577767872117 0  -0.6987694277788414 -0.7153469695201277 0  -0.6760702104750047 -0.7368372076030654 0  -0.6527104152454096 -0.7576074932510666 0  -0.6287128665908849 -0.777637532133752 0  -0.6041010121514362 -0.7969077532046042 0  -0.5788988997959114 -0.8153993278235416 0  -0.5531311541251992 -0.8330941881540916 0  -0.5268229524119011 -0.8499750448172039 0  -0.5000000000000004 -0.8660254037844384 0  -0.4726885051885656 -0.8812295824940283 0  -0.4449151536240167 -0.895572725174074 0  -0.4167070822259868 -0.9090408173578921 0  -0.3880918526722498 -0.9216206995773374 0  -0.3590974244686246 -0.933300080220719 0  -0.3297521276301665 -0.9440675475427478 0  -0.3000846350003414 -0.9539125808147788 0  -0.2701239342352219 -0.9628255606044562 0  -0.2398992994800975 -0.9707977781747126 0  -0.2094402627661449 -0.977821443992945 0  -0.1787765851551298 -0.9838896953420493 0  -0.1479382276603302 -0.9889966030258751 0  -0.1169553219720827 -0.9931371771625541 0  -0.08585814101656615 -0.9963073720600383 0  -0.05467706937658603 -0.9985040901690829 0  -0.02344257360326047 -0.9997251851098159 0  0.007814827552383885 -0.9999694637689326 0  0.03906459295881858 -0.9992366874654682 0  0.07027618894529319 -0.9975275721840101 0  0.101419119135812 -0.9948437878751196 0  0.1324629542466875 -0.991187956823649 0  0.1633773618185298 -0.9865636510865465 0  0.1941321358536273 -0.9809753890026542 0  0.2246972263297716 -0.9744286307779074 0  0.2550427685616762 -0.9669297731502506 0  0.2851391123813071 -0.9584861431394824 0  0.3149568511086103 -0.9491059908881351 0  0.3444668502843321 -0.9387984816003867 0  0.3736402761368591 -0.927573686586878 0  0.402448623755253 -0.9154425734241896 0  0.4308637449409699 -0.9024169952385886 0  0.458857875711036 -0.8885096791245188 0  0.4864036634258115 -0.8737342137091519 0  0.5134741935148417 -0.8581050358751444 0  0.5400430157746755 -0.841637416654579 0  0.5660841702129531 -0.8243474463078735 0  0.5915722124135223 -0.8062520186022298 0  0.6164822383977913 -0.7873688143049919 0  0.6407899089580255 -0.7677162839080368 0  0.6644714734388212 -0.7473136296000775 0  0.6875037929435055 -0.7261807865044996 0  0.7098643629428029 -0.7043384032010527 0  0.7315313352636693 -0.6818078215504374 0  0.7524835394368069 -0.6586110558415 0  0.7727005033820112 -0.6347707712814024 0  0.7921624734111292 -0.6103102618497922 0  0.8108504335290849 -0.5852534275386133 0  0.8287461240141216 -0.5596247509997839 0  0.8458320592590973 -0.5334492736235703 0  0.8620915448564062 -0.5067525710710259 0  0.8775086939098309 -0.4795607282843985 0  0.8920684425573863 -0.4519003139999344 0  0.9057565646899907 -0.423798354787966 0  0.91855968585158 -0.3952823086456649 0  0.9304652963070865 -0.3663800381682465 0  0.9414617632655112 -0.337119783324851 0  0.9515383422461453 -0.3075301338657036 0  0.9606851875768402 -0.2776400013875007 0  0.9688933620140637 -0.2474785910843287 0  0.9761548454753451 -0.2170753732117144 0  0.982462542875576 -0.1864600542916819 0  0.9878102910595093 -0.1556625480869676 0  0.9921928648236853 -0.1247129463727333 0  0.9956059820218981 -0.09364148953435038 0  0.998046307749216 -0.06247853701998217 0  0.9995114576004659 -0.03125453767682462 0  1 0 0  0.9995114576004659 0.03125453767682429 0  0.998046307749216 0.06247853701998265 0  0.9956059820218981 0.09364148953435077 0  0.9921928648236853 0.1247129463727328 0  0.9878102910595095 0.155662548086967 0  0.9824625428755761 0.1864600542916812 0  0.9761548454753453 0.2170753732117136 0  0.9688933620140637 0.2474785910843287 0  0.9606851875768402 0.2776400013875006 0  0.9515383422461454 0.3075301338657034 0  0.9414617632655113 0.3371197833248507 0  0.9304652963070866 0.3663800381682462 0  0.9185596858515798 0.3952823086456654 0  0.9057565646899906 0.4237983547879663 0  0.8920684425573865 0.4519003139999338 0  0.8775086939098312 0.4795607282843979 0  0.8620915448564065 0.5067525710710252 0  0.8458320592590974 0.5334492736235703 0  0.8287461240141217 0.5596247509997838 0  0.810850433529085 0.5852534275386132 0  0.7921624734111293 0.6103102618497921 0  0.7727005033820115 0.6347707712814021 0  0.7524835394368066 0.6586110558415004 0  0.731531335263669 0.6818078215504377 0  0.7098643629428033 0.7043384032010522 0  0.6875037929435058 0.7261807865044991 0  0.6644714734388218 0.7473136296000771 0  0.6407899089580261 0.7677162839080364 0  0.6164822383977913 0.7873688143049919 0  0.5915722124135224 0.8062520186022298 0  0.5660841702129532 0.8243474463078734 0  0.5400430157746757 0.8416374166545789 0  0.5134741935148419 0.8581050358751443 0  0.4864036634258111 0.8737342137091521 0  0.4588578757110357 0.8885096791245191 0  0.4308637449409705 0.9024169952385883 0  0.4024486237552537 0.9154425734241893 0  0.3736402761368599 0.9275736865868777 0  0.344466850284333 0.9387984816003864 0  0.3149568511086103 0.9491059908881351 0  0.2851391123813073 0.9584861431394823 0  0.2550427685616765 0.9669297731502506 0  0.2246972263297718 0.9744286307779073 0  0.1941321358536277 0.9809753890026541 0  0.1633773618185302 0.9865636510865465 0  0.1324629542466882 0.9911879568236489 0  0.1014191191358116 0.9948437878751196 0  0.070276188945293 0.9975275721840101 0  0.03906459295881948 0.9992366874654682 0  0.007814827552383908 0.9999694637689326 0  -0.02344257360326044 0.9997251851098159 0  -0.05467706937658601 0.9985040901690829 0  -0.0858581410165659 0.9963073720600383 0  -0.1169553219720823 0.9931371771625542 0  -0.14793822766033 0.9889966030258751 0  -0.1787765851551293 0.9838896953420494 0  -0.2094402627661442 0.9778214439929452 0  -0.2398992994800977 0.9707977781747126 0  -0.2701239342352221 0.9628255606044562 0  -0.3000846350003405 0.953912580814779 0  -0.3297521276301665 0.9440675475427478 0  -0.3590974244686244 0.9333000802207191 0  -0.3880918526722498 0.9216206995773374 0  -0.4167070822259866 0.9090408173578922 0  -0.4449151536240161 0.8955727251740744 0  -0.4726885051885654 0.8812295824940284 0  -0.4999999999999998 0.8660254037844387 0  -0.5268229524119006 0.8499750448172042 0  -0.5531311541251994 0.8330941881540915 0  -0.5788988997959115 0.8153993278235415 0  -0.6041010121514356 0.7969077532046046 0  -0.6287128665908847 0.7776375321337522 0  -0.6527104152454095 0.7576074932510667 0  -0.6760702104750045 0.7368372076030655 0  -0.6987694277788417 0.7153469695201276 0  -0.7207858880967422 0.6931577767872122 0  -0.7420980794800011 0.6702913101272416 0  -0.7626851781103818 0.6467699120171988 0  -0.7825270686467567 0.6226165648576291 0  -0.8016043638794973 0.5978548685168888 0  -0.8198984236734244 0.5725090172720723 0  -0.8373913731808004 0.5466037761691493 0  -0.8540661203065709 0.5201644568254178 0  -0.8699063724087902 0.4932168926979075 0  -0.8848966522179167 0.4657874138418979 0  -0.8990223129594146 0.4379028211842262 0  -0.9122695526648966 0.4095903603365067 0  -0.9246254276578173 0.3808776949738572 0  -0.9360778652005417 0.3517928798051441 0  -0.9466156752904341 0.3223643331611538 0  -0.9562285615934408 0.2926208092274697 0  -0.9649071315044796 0.2625913699491987 0  -0.972642905324813 0.2323053566349835 0  -0.9794283245474321 0.2017923612880577 0  -0.9852567592423589 0.1710821976923501 0  -0.9901225145346509 0.1402048722818858 0  -0.994020836168776 0.1091905548219599 0  -0.9969479151539234 0.07806954893071527 0  -0.9989008914857115 0.04687226246993986 0  1.110223024625157e-16 -2.775557561562891e-17 0  -0.3863974474573612 -0.317424156798324 0  -0.396129621189394 0.3051924080593066 0  0.4099992904043731 0.2862894769086035 0  0.4270852256493489 -0.2601139995323899 0  0.03708777072998221 -0.5264382495583936 0  0.01248516297171209 0.5324386338402649 0  -0.6207658225190883 -0.01941123199826657 0  0.6447900705438036 0.02016246577286265 0  -0.3101761899424721 -0.01631650645862892 0  0.3565516624904603 -0.5755392766942902 0  -0.2723364178444297 -0.6198446761553751 0  0.3427858116594524 0.5937224419079066 0  -0.2984103456093845 0.6104731824503533 0  0.3667160838041974 0.01146714384392511 0  -0.6716300179781293 0.2644610525490835 0  -0.6590017516673985 -0.3083431785610297 0  -0.1084534130028514 0.2689088253298916 0  -0.100459272944466 -0.2716029415995499 0  0.1639137814014619 -0.2934459887626298 0  0.6763180933832935 0.2846137780453449 0  0.6927790284331888 -0.2418023652779792 0  0.1527729805689926 0.2179392983906862 0  -0.5464028464021973 0.5092628523700411 0  -0.5144758845790655 -0.5384501739935209 0  -0.05310949307654518 -0.7538568110147623 0  0.1448300148945508 0.7398918223362825 0  0.5742441665884844 -0.4586196155717247 0  -0.09866820077445607 0.7501116494923259 0  0.5673708256615126 0.501555428546598 0  0.1843882441159405 -0.7397465595463402 0  0.2025701034833702 0.4286907185288223 0  -0.7970312723533243 0.074964591310
[...]
<PointData  Scalars="f_31"> 
<DataArray  type="Float64"  Name="f_31"  format="ascii">2.1006853729438251e-37  1.9044762516145299e-38  1.7286197024528508e-39  1.5745298550764660e-40  1.4426021963050998e-41  1.3326028710560367e-42  1.2440106770171597e-43  1.1763131592838373e-44  1.1292708469748161e-45  1.1031739418970524e-46  1.0991262908717682e-47  1.1194058327410998e-48  1.1679741458901859e-49  1.2512487302105157e-50  1.3793252495219893e-51  1.5679711615049079e-52  1.8419612611459310e-53  2.2407979354070174e-54  2.8287762329158213e-55  3.7131833665802927e-56  5.0781759659196255e-57  7.2498142850075963e-58  1.0825047552317661e-58  1.6936493928862380e-59  2.7816028407909630e-60  4.8040906632938404e-61  8.7401108058758155e-62  1.6777818318820638e-62  3.4038247916146062e-63  7.3095217304240293e-64  1.6640008723126210e-64  4.0215082904228244e-65  1.0332320020669081e-65  2.8259004488477826e-66  8.2378927836399054e-67  2.5627058070340265e-67  8.5172659490712260e-68  3.0275263853338219e-68  1.1521283340745986e-68  4.6983886840657688e-69  2.0550046822772700e-69  9.6481353058825054e-70  4.8658811344122258e-70  2.6378956759955512e-70  1.5381247383368454e-70  9.6514422624091022e-71  6.5201465410680297e-71  4.7440953359909753e-71  3.7189069314908488e-71  3.1415673728623262e-71  2.8603435707891115e-71  2.8071820366618384e-71  2.9696923641314068e-71  3.3862341034492293e-71  4.1613230096920559e-71  5.5101997768049682e-71  7.8596931029326182e-71  1.2072451100772838e-70  1.9959737509173241e-70  3.5503432635263608e-70  6.7904354975428612e-70  1.3956017405512234e-69  3.0800394051988220e-69  7.2936685349863341e-69  1.8516757608049739e-68  5.0352110928769077e-68  1.4651421008873854e-67  4.5571980814932050e-67  1.5135285963939562e-66  5.3610341754647163e-66  2.0227167413731931e-65  8.1187027136543990e-65  3.4618923935776605e-64  1.5660313485627399e-63  7.5042420435841019e-63  3.8033631820076255e-62  2.0356102842503376e-61  1.1486177302032329e-60  6.8214417658851397e-60  4.2563824669515564e-59  2.7854282860857280e-58  1.9082401441404231e-57  1.3659889775916574e-56  1.0197630144249126e-55  7.9238485635163913e-55  6.3956971922889861e-54  5.3514105192106180e-53  4.6320778591261938e-52  4.1389941518560446e-51  3.8097443208594860e-50  3.6044332943599996e-49  3.4975563675301774e-48  3.4730793642289769e-47  3.5213795962200694e-46  3.6372753938365977e-45  3.8186856138170773e-44  4.0656338796030470e-43  4.3794098831799772e-42  4.7617572850122998e-41  5.2139954233393581e-40  5.7360137148510263e-39  6.3251129672801308e-38  6.9747138060831162e-37  7.6730128817859404e-36  8.4017415534343123e-35  9.1352613973193725e-34  9.8402992580233410e-33  1.0476655607389008e-31  1.0999182002178005e-30  1.1361187556093005e-29  1.1519187975059615e-28  1.1438573062113469e-27  1.1099401981291892e-26  1.0501243831456953e-25  9.6658880348781817e-25  8.6369563002991984e-24  7.4759829964893805e-23  6.2553077242444502e-22  5.0489422820442215e-21  3.9231717058710165e-20  2.9287977212956851e-19  2.0965418934143533e-18  1.4362981179125864e-17  9.3993090046500637e-17  5.8648971026823898e-16  3.4830608127367858e-15  1.9653592025149198e-14  1.0518862421057166e-13  5.3312584824015759e-13  2.5546777263156636e-12  1.1556411783068343e-11  4.9277643805788998e-11  1.9778871272749199e-10  7.4625627704356926e-10  2.6432968722344585e-09  8.7788709934121969e-09  2.7305920718968078e-08  7.9454571637422215e-08  2.1605863669923337e-07  5.4851757873211646e-07  1.2989137080949650e-06  2.8666526335122119e-06  5.8916772073501768e-06  1.1268503093731330e-05  2.0043877846823801e-05  3.3139131163094311e-05  5.0901547331318275e-05  7.2605451107716584e-05  9.6140227412472572e-05  1.1814615536505167e-04  1.3471783990849859e-04  1.4251677848590375e-04  1.3986800207297913e-04  1.2734743298661888e-04  1.0757745430541149e-04  8.4330206742144374e-05  6.1359133260064624e-05  4.1451891811730570e-05  2.6010279304209020e-05  1.5166276063498128e-05  8.2219546560475542e-06  4.1466099697484208e-06  1.9468108464123292e-06  8.5150584038596436e-07  3.4724477183341163e-07  1.3214436129329861e-07  4.6971709334986961e-08  1.5611255080097092e-08  4.8564669509061083e-09  1.4157276511692842e-09  3.8720300928372563e-10  9.9482709370836683e-11  2.4042688146704126e-11  5.4732793094159507e-12  1.1753558569587381e-12  2.3845206384179574e-13  4.5774081058511922e-14  8.3277058766884256e-15  1.4382734106454115e-15  2.3621804026792766e-16  3.6957855247749235e-17  5.5183557089990325e-18  7.8782331131001347e-19  1.0774327604968631e-19  1.4142883973405196e-20  1.7853932037646785e-21  2.1719812947621694e-22  2.5515172109707038e-23  2.9004800762343874e-24  3.1973702016965087e-25  3.4253372978870394e-26  3.5739544031935126e-27  3.6398960138714059e-28  3.6265408862050882e-29  3.5427332739555941e-30  3.4010547049572422e-31  3.2159735272355236e-32  3.0021737846887625e-33  2.7732561444398400e-34  2.5408888831081615e-35  2.3143930381034618e-36  3.9438022303966064e-10  1.1434012072891279e-27  6.6809330564841555e-07  1.5644159266672395e-07  9.3263368832806652e-26  1.9768410005258782e-35  2.9570366693171168e+00  1.6875378059787819e-21  5.0267318386860648e-21  2.3451774105239818e-13  4.5607213692622958e-42  1.5180266281360996e-43  2.1627754638134655e-03  1.3301949951709639e-02  1.7252942242199074e-13  8.6069223633849055e-16  3.9631998290238428e-35  1.6913128826382292e-03  1.6070835893247671e-21  4.6575515683598903e-23  1.3298874041261264e-15  3.6798284960465747e-33  7.8725511753875566e-05  1.1882241386236319e-08  1.6639301314219243e-43  3.7818208224704549e-51  2.9861063753317579e-01  1.9387810822675183e-40  5.0716616221921873e-01  2.4280707223545855e-09  5.8548040373895371e-51  4.4240142068500320e-02  1.9193292937000507e-25  1.4584358578331810e-32  9.6037041109680008e-13  1.6537743132754090e-01  7.0892298914152032e-31  1.6868799050219415e-24  9.6893632111170422e-25  3.5065762273820376e-31  6.1934094786699748e-10  6.0065424600008329e-18  1.5873085248413759e-13  1.7250266483730718e-23  8.8696334435013902e-02  2.5849372308866650e-07  2.2949026353588431e-06  1.1095364229891881e-52  6.4025815461265693e-50  2.4767743876420708e-55  1.3496618840132173e-30  1.2420883885501897e-16  1.1865890670279412e-03  3.3070110849548464e-07  4.0410204337587314e-54  2.6699622696664815e-03  2.5679911199436986e-19  1.2757721737838606e-39  1.7876813672701276e-40  1.5106690806170073e-14  8.4850334787327101e-04  4.4911335262716523e-01  2.9335939655677182e-09  1.7623958662488484e-04  2.1565404988174731e-15  4.9221261055643266e-37  3.2072172609473977e-45  1.7355510465594916e-43  1.5272332149743064e+00  3.2245439366376908e-15  1.4767174427027559e-17  3.4463672717429566e-08  2.1160223369467806e-22  6.8467648955280048e-04  1.5326910730916634e-05  3.2112974679203396e-26  1.3041785657634530e-18  8.6712750874035863e-02  9.3028924276248549e-31  3.2649758217351086e-58  3.5350563528677339e-41  2.2686454690086974e-11  3.3370653704907999e-16  1.0697112202870041e-31  5.9586481791888785e-22  3.6596556214967089e-38  3.8792527101850956e-11  3.0682021454007947e-19  9.7470864994598989e-35  1.0496014004991868e-36  5.5175675371723645e-50  6.8366974331508755e-08  1.2713257105764778e-28  1.0305205263620120e-29  2.0275883240897375e-18  5.0719131741674475e-05  3.0559326967972630e-53  1.0191396886064028e-12  1.1216959651302775e-19  6.4362671897404486e-44  5.5723400390068941e-05  4.1383771870443391e-27  3.5443252444638876e-60  8.1088992809943662e-07  9.4518924454444955e-03  3.9638361673444432e-11  4.1974845098185854e-03  9.1457663862377546e-24  2.5439728208687613e-14  3.1787288254981286e-11  2.2674579022831760e-59  2.5658753572589181e+00  1.4741874381117903e-49  8.2652019411478854e-06  1.6413477596231654e-01  3.5074116881795584e-25  2.5302202754967328e-32  1.8879643539481954e-46  7.2066293516349630e-10  1.0710914535043131e-11  1.1693097500486122e-10  1.4183951989998769e-01  2.5540418999677007e-32  5.4160210814032216e-06  4.4238405048785786e-31  1.2043060556642188e-36  4.9876511901023294e-48  1.3322050275946974e-44  3.9399269689611105e-02  1.8041145297035146e-26  1.4565351427577841e-39  8.5809433690025883e-01  1.6383179413164282e-02  4.4389154010714988e-03  2.1672357081158222e-58  3.5666246139516169e-43  6.4397574915238193e-08  2.9173543350281853e-06  1.3665457644933556e-14  2.3521051188098345e-35  1.2452466456615345e-05  2.5407921419238966e-56  1.0744732393266757e-27  3.8995465405226859e-20  1.8628801095313918e-13  1.0478609272779402e+00  2.8492186160187045e+00  8.1982894823442235e-11  1.8555398978060812e-08  4.8141745009235661e-18  9.7058540444556049e-36  2.8960351355672344e-30  2.8892506428742542e-03  1.5035771556546985e-34  7.2528040712859556e-17  1.2138359194350542e-48  7.2257125011451036e-51  4.4403129162603089e-04  1.5284667023143368e-25  2.4164404082728731e-21  3.7918251519500737e-41  1.4643374815597963e+00  1.8612348586481689e-01  8.7873276959554772e-27  1.0237414876457285e-30  1.3177386909318835e-02  8.5725181873086578e-20  2.5949891865072274e-37  2.7633002280589641e-18  2.7085203050965543e-04  1.2686687550718354e-33  9.9066718144069846e-12  1.5135986291885089e-36  1.5132472108157760e-14  1.4659443432590524e-42  3.1246823464130784e-43  4.5048067621152305e-58  1.4174260956185038e-50  5.7745544243679023e-47  1.5852486180415506e-12  9.2538165930689520e-28  1.5152504519590592e-24  1.7587392870463841e-23  4.7948298691737487e-02  9.1454711559757838e-50  4.6107148270494010e-11  5.0181538935017552e-08  7.4368698212973932e-05  8.3336966097311205e-10  4.4146674048380721e-58  4.4302045932331254e-09  2.0366410517168109e-32  5.7819757416319092e-55  1.1420012908781305e-10  2.6733464456661513e-07  4.3391226144367619e-38  2.1449885228067788e-07  1.1826013372062182e-08  1.0364253058076191e-21  1.5051718182446663e-29  3.4165490687308961e-36  9.9846097081022696e-27  1.6409337292958805e-07  2.1370028004580453e-02  1.9415263839343683e-62  3.5959362446603789e-03  2.3756549973960772e-31  4.0401314096053154e-16  3.8183548836478353e-23  2.4159104002144061e-21  9.2460237931411327e-60  6.0158557984737729e-06  8.9338595655820189e-41  2.7811357569854398e-10  1.7117242455240489e-22  3.6310706883319131e-17  1.5364894095917595e-23  4.5962722612585106e-28  5.9297763985295199e-14  7.6452586903493128e-45  4.0566188710619841e-05  1.0200981029857571e-20  1.8324141960738489e-08  1.4418090902734715e-04  2.2004640379914170e-36  1.2652949663160301e-38  8.9332805829236398e-17  1.6704303542914367e-01  7.9371245829857506e-01  4.8317709064733062e-04  3.9420405216484985e-05  1.4402283982491705e-13  2.3729368112493962e-17  1.1708809283554311e-60  3.8983261934429751e-19  4.2336467980111552e-14  3.1556111122464030e-02  5.7072003077893410e-17  1.2540784795611116e-22  2.8703626554286909e-29  8.1022968515007892e-53  1.2596382315768902e-07  3.1349733032558767e-05  5.8670769960565390e-16  1.1152614364308988e-51  8.2912789186987922e-10  3.7476658702470862e-47  5.2808025510439928e-22  3.5019241281869828e-36  8.5366634884068615e-19  5.1672357079031461e-44  4.3707339457163768e-20  4.2026015371197968e-02  5.5005508390818733e-03  6.2968745424714400e-28  7.8945608962849551e-57  5.0656362430796295e-64  6.5006314281175623e-16  8.4269503867455012e-48  4.0482874454448892e-54  1.1041782219906720e-16  1.1622275667945715e-19  5.6508805869161085e-43  1.6621149938374076e-45  4.7915185624316321e-35  4.0585861221519327e-30  3.6049261514249694e-45  6.8814374120317950e-41  1.2495102268032444e-02  1.9508107267363578e-03  4.6617623738308315e-11  2.1991078717122545e-07  1.4024403891801308e-26  2.0438363757407766e-10  1.3110044181732474e-20  1.8276091423236150e-17  2.0608812224249775e-05  8.2157969309321465e-03  1.1507182359612809e-02  2.0416069149037213e-05  9.0457713235660095e-61  5.4621788851640800e-64  4.5311424609435960e-56  6.3679222178435965e-25  1.7211792297347224e-13  1.0247142911136235e-05  2.4910529367624357e-14  1.9737274352941911e-01  4.5879218646638700e-02  3.8525150375392192e-01  2.5387326557834145e-12  9.1533271420163003e-31  1.5691743888385071e-21  7.4061357763913693e-04  1.0607993220828965e-14  1.1527866784730091e-23  2.2806220998230837e-41  8.7649283457874626e-39  4.4068748708637434e-01  2.0679245824164241e-55  7.3471188127945577e-11  6.9706487997184138e-12  1.7949998228985573e-06  2.6952313567839836e-16  5.0992561785594920e-06  1.8729801468647419e-26  1.0165030275854618e-23  1.5812176873591947e-35  1.1862663598114032e-49  5.1298633382786057e-39  1.6643840944838748e-04  1.7463967526450900e-12  6.1720875293729141e-03  5.7358962358063964e-26  1.1186995132692351e-63  1.2715909060483650e+00  3.2774760073855642e+00  1.7513471183660347e-03  1.9612284260916399e-48  1.2639477716285200e-19  4.8525155112699545e-21  1.3413215644542563e-12  4.3455229703723879e-27  3.6528013835317318e-03  7.9105135693131500e-19  1.5396667521002631e-53  1.5077617575562430e-12  2.4325652970342984e+00  6.5031142043184377e-14  2.5016779022292271e-43  2.7086554396060343e-46  2.2311838601552352e-64  5.9597044187541586e-39  8.0717728279254158e-15  7.8638528529605960e-05  2.3106749815881160e-17  3.9059996191513912e-41  5.5177352214126779e-09  4.9772636738742822e-59  1.6912450433526675e-43  1.3649846234041329e-30  1.0594833826916807e-01  5.0971517013969412e-10  6.8016079909210606e-08  1.9033661262174151e-38  2.2028914233617495e-46  9.8303048031675005e-19  6.8231100093117979e-50  4.7729760829809222e-31  7.9372790329462869e-14  5.1302646289050088e-31  1.6594521055284399e-49  4.5752672562734237e-10  1.8998065859925375e-02  1.9387121154033667e-12  1.5440909381877890e-06  3.9535805359924922e-05  8.7176485030027818e-27  4.7691954609521664e-02  2.3835544154993321e-39  1.3834939475679986e-13  1.3440306533373457e-13  4.0104227519087859e-19  6.1100064839647590e-24  7.5521386915172669e-05  9.9053885963758371e-59  6.8818195679204067e-40  8.2407039235233476e-36  1.0250246986573970e-30  1.3948374152206870e-25  1.0863588335229030e-09  1.2408659300006452e-53  3.1770337164539080e-04  3.9451630916904250e+00  1.4136419167500514e-01  1.5295905953757784e-07  3.9178251221139414e-33  1.1279646953321170e-18  9.5227828075290264e-21  2.0104999605036147e-08  1.0808679549732818e-34  7.6969153256606122e-17  1.7351002734356645e-07  8.5980753551179108e-06  2.0929084515354609e-09  8.6818407648682581e-37  7.7165229920006029e-22  2.6116896069440130e-35  7.7880565916352440e-01  4.4273273913716497e-45  8.3571108866295004e-50  4.2812062195045240e-22  8.9391348232227757e-19  1.9594242450674063e-04  6.6931906805839240e-12  4.5220940061544195e-20  3.4633509942394330e-48  1.8913492217977038e-03  3.9916783579923084e-47  1.0827902750954042e-15  5.6192519112418819e-33  5.2136408684583726e-27  1.5394315898251299e-26  1.3501582493923309e-16  7.3349788976790804e-55  4.2970443591321180e-28  1.4495101697428513e-30  2.5430073560777376e-26  1.3041445994931686e+00  1.9694389373274860e-04  2.6953799195041692e-02  1.0900272631125665e-15  1.1670484638984709e-14  3.8683535219272701e-17  1.9682160421259807e-03  4.5372330963224920e-31  5.9969272455632567e-64  7.4329889431301296e-27  3.7769954384488941e-12  7.0184081464200807e-24  4.1544821926327236e-42  1.0185565587877959e-03  9.7800982203105705e-14  5.6990914965480822e-40  1.7141444841331819e-34  7.3461855161774186e-38  3.6882100971872795e-09  8.0803452917217619e-38  1.2392380789475077e-18  1.4566471452599690e-63  4.3107824352443644e-30  1.4710774831836219e-22  3.6493212721980400e-07  1.5830230875271074e-65  1.4045866267074378e-55  5.0846680924290853e-04  2.4447548141021843e-09  1.4734213805965610e-10  3.2455381536788627e-13  4.5484457750072496e-02  2.7373218109182293e-03  4.2151246957371740e-34  1.5067053338643236e-53  2.2003739923521173e-40  7.6419182062597040e-55  2.4589151585675502e-36  7.0417553884397915e-05  9.0240542328585051e-36  1.6404585119920493e-10  3.2504329985507257e-07  5.0845281061024320e-07  1.2112772786613542e-05  1.1394760758646384e-21  2.0096039089805185e-14  9.0744618797062673e-21  4.2991678374055351e-23  4.7165835763225279e-27  2.2977975596560533e-24  6.7098404397862295e-07  4.3135986663987270e-34  4.3960315970236006e-04  4.7737680470395147e-06  4.0326413302454725e-25  6.6668723025549990e-04  5.6337441377088680e-08  3.1835184594092625e-01  9.4960017485936729e-05  3.7265254472551886e-55  1.3021475082944390e-09  1.1928546792143705e-08  2.8245993853850225e-61  3.5059797600730184e-34  4.1314592128941208e-01  3.7911433507028973e-60  2.7991490859985659e-29  2.8375080976337257e-27  4.1744846348333979e-28  1.1949308581921755e-24  1.2264566691338534e+00  1.1949899047170423e+00  1.8788515234009474e-06  4.1174069481212970e-26  4.8779700495938472e-22  8.4332395225937991e-26  1.7023856928558673e-55  1.9590441454789741e-02  1.5029055951226068e-47  2.2041027142423078e-46  1.1008185783232956e-45  6.7162568545182237e-51  4.2350201806446637e-09  2.0234157529277330e-21  4.5525793998798235e-20  2.0117471104068677e-28  3.6570649865313509e-01  6.3410750645687664e-01  1.0140884149897657e-01  1.2722169392073782e-12  1.3195475679829527e+00  2.6403483429894844e-02  1.1805717918621769e-52  3.3671812980810425e-56  6.3130210608192705e-55  1.8581977095230057e-01  1.0603409256790942e-63  3.9741012665716929e-01  1.5129810963891957e-04  7.5423457365037446e-49  2.3803537674560357e-38  4.1179667502640943e-32  1.6851447871246840e-08  4.2918060931761886e-03  2.5095513966931914e-38  2.0074012141701225e-23  2.1375407629639161e-05  7.1226366621599379e-62  4.3847655206556458e-08  3.2713600654337644e-12  2.1019139212327332e-44  5.6936501242754661e-16  8.3563076565720397e-51  1.0229441562030574e-08  1.2852488576413582e-32  8.4349899245947380e-02  1.0213553530247264e-27  1.5121550899409738e-43  6.9858732590306671e-29  1.8195234571821211e-24  1.6954081339978923e-58  9.0766015373773405e-18  2.0179376271819956e-20  1.1778832088646069e-43  1.5720387362416668e-12  4.4756681765537998e-22  2.6351935943502189e-61  5.4400831064058182e-05  3.7051826418992906e-09  2.7947963213282447e-12  7.3499533908293990e-06  1.3059718005154710e-07  3.4359726095474796e-31  1.0718412671004061e-40  6.6245510308843860e-66  5.7212697654754854e-06  2.2735747063717413e-08  8.6661358081305180e-25  4.1566836943729912e-17  1.2216158356796094e-50  5.3222402492891976e-30  1.5916827394620165e-48  4.3153035958977155e-45  9.5531994072871620e-41  2.6126332484375913e-06  6.6857155139312353e-07  4.4447079405830686e-43  5.4820928513257974e-65  5.6723878349055931e-24  2.6533729094448639e-49  4.6736358806379814e-44  1.3591439692424685e-30  1.2236218606675553e-32  4.0506571657782643e-33  1.8666517983683565e-10  1.3587093046005295e-11  3.3055888028185820e-04  1.2225039247905235e-13  1.2805801083280692e-15  8.1650315083332538e-12  1.3348544621054896e-22  1.8328704737597667e-38  1.8779759156625561e-10  2.8865496441289107e+00  8.3116499159065270e-43  9.2910486163658058e-15  6.4867360014359100e-06  7.1267722466377913e-08  4.8418350063539929e-03  1.0474266527223398e-02  1.7024204073610080e-01  9.1080270680840821e-24  5.3468659638479333e-36  3.3868083215074330e-09  1.1092558630864192e-06  1.9031813691225927e-09  1.2931798489041236e-28  4.3086418940451891e-28  2.2812651485737495e-06  5.0500070590746257e-51  2.7023324583014537e-49  5.5276103312257860e-39  7.2513990703329578e-01  2.3681011041433661e-01  4.5886285848759410e-25  6.0011545986946716e-46  2.2382460180913500e-27  3.6168176072302141e-16  2.8515849186264271e-39  7.5502490206664227e-14  6.9833532998955087e-17  1.1259165808669586e-14  3.3657199774936501e-07  1.0174064187777455e-51  8.6730446262637349e-35  5.9226644941782676e-06  1.1022305912140591e-59  6.3574391367563644e-03  1.9544852205481415e-03  2.9013382071725023e-02  1.9002848598664572e-03  1.3408730549868879e-02  9.5652180567967272e-04  6.3787015877065036e-26  5.1503127609870871e-12  1.3884860416642708e-11  8.8180368751166055e-25  1.3478094309340742e-32  1.4163364210769024e-35  2.2063004503389475e-41  4.5168687597232852e-40  5.9787967789259853e-19  4.3886567565991534e-19  5.8193439564984410e-19  2.9711986306018988e-21  2.9587860105489842e-26  7.1987830467035668e-30  3.7852858872729267e-44  2.7080364591906432e+00  5.3425239176847869e-39  5.9372997612678676e